--------------------------------------------------------------------------
[[26613,1],1]: A high-performance Open MPI point-to-point messaging module
was unable to find any relevant network interfaces:

Module: OpenFabrics (openib)
  Host: golub052

Another transport will be used instead, although this may result in
lower performance.
--------------------------------------------------------------------------
 PROCESS            5  OF           16  WORKING
 PROCESS            0  OF           16  WORKING
 PROCESS           11  OF           16  WORKING
 PROCESS            3  OF           16  WORKING
 PROCESS           12  OF           16  WORKING
 PROCESS            2  OF           16  WORKING
 PROCESS           13  OF           16  WORKING
 PROCESS            9  OF           16  WORKING
 PROCESS           14  OF           16  WORKING
 PROCESS            4  OF           16  WORKING
 PROCESS            7  OF           16  WORKING
 PROCESS            1  OF           16  WORKING
 PROCESS            6  OF           16  WORKING
 PROCESS           15  OF           16  WORKING
 PROCESS           10  OF           16  WORKING
 PROCESS            8  OF           16  WORKING

         
 *******************************************************************************
 *                                                                             *
 *                               CRYSTAL17                                     *
 *                      public : 1.0.1 - Jun 21st, 2017                        *
 *                       HTTP://WWW.CRYSTAL.UNITO.IT                           *
 *                                                                             *
 *                              MAIN AUTHORS                                   *
 *                                                                             *
 *  R. DOVESI(1,11), V.R. SAUNDERS(2), C. ROETTI(1,11), R. ORLANDO(1,11),      *
 *  C.M. ZICOVICH-WILSON(1,3), F. PASCALE(4), B. CIVALLERI(1,11),              *
 *  K. DOLL(5), N.M. HARRISON(2,6), I.J. BUSH(7), Ph. D'ARCO(8),               *
 *  M. LLUNELL(9), M. CAUSA'(10), Y. NOEL(8), L. MASCHIO(1,11), A. ERBA(1,11)  *
 *  M. RE'RAT(14), S. CASASSA(1,11)                                            *
 *                                                                             *
 *        CONTRIBUTIONS TO THE CODE HAVE ALSO BEEN GIVEN BY                    *
 *                                                                             *
 *  M. FERRABONE(1,11), M. DE LA PIERRE(1,11), M. FERRERO(1,11),               *
 *  J. BAIMA(1,11), E. ALBANESE(1,11), M.F. PEINTINGER(12), R. BAST(13),       *
 *  B. KIRTMAN(15), V. LACIVITA(1,11), R. DEMICHELIS(1,16)                     *
 *  G. BRANDEBURG(17), S. SALUSTRO(1,11), G. SANSONE(1,11)                     *
 *  M.T. RUGGIERO(18)                                                          *
 *                                                                             *
 * (1) THEORETICAL CHEMISTRY GROUP - UNIVERSITA' DI TORINO - TORINO (ITALY)    *

 * (2) COMPUTATIONAL SCIENCE & ENGINEERING DEPARTMENT - STFC DARESBURY (UK)    *
 * (3) UNIVERSIDAD AUTONOMA DEL ESTADO DE MORELOS - CUERNAVACA (MEXICO)        *
 * (4) UNIVERSITE' DE LORRAINE - NANCY (FRANCE)                                *
 * (5) UNIVERSITAET STUTTGART- STUTTGART (GERMANY)                             *
 * (6) IMPERIAL COLLEGE - LONDON (UK)                                          *
 * (7) OXFORD E-RESEARCH CENTRE - OXFORD (UK)                                  *
 * (8) UPMC - SORBONNE UNIVERSITES - PARIS (FRANCE)                            *
 * (9) UNIVERSIDAD DE BARCELONA - BARCELONA (SPAIN)                            *
 *(10) UNIVERSITA' DI NAPOLI "FEDERICO II" - NAPOLI (ITALY)                    *
 *(11) NIS - NANOSTRUCTURED INTERFACES AND SURFACES - TORINO (ITALY)           *
 *(12) MPI FUER CHEMISCHE ENERGIEKONVERSION - MUELHEIM AN DER RUHR (GERMANY)   *
 *(13) UNIVERSITY OF TROMSO - TROMSO (NORWAY)                                  *
 *(14) UNIVERSITE' DE PAU ET DES PAYS DE L'ADOUR - PAU (FRANCE)                *
 *(15) UNIVERSITY OF CALIFORNIA SANTA BARBARA - SANTA BARBARA (USA)            *
 *(16) CURTIN UNIVERSITY - PERTH (AUSTRALIA)                                   *
 *(17) UNIVERSITY COLLEGE LONDON - LONDON (UK)                                 *
 *(18) CAMBRIDGE UNIVERSITY - CAMBRIDGE (UK)                                   *
 *                                                                             *
 *******************************************************************************
 EEEEEEEEEE STARTING  DATE 28 11 2017 TIME 22:23:22.8
 Generated by CrystalWriter                                                      

 CRYSTAL CALCULATION
 (INPUT ACCORDING TO THE INTERNATIONAL TABLES FOR X-RAY CRYSTALLOGRAPHY)
 CRYSTAL FAMILY                       :  TETRAGONAL  
 CRYSTAL CLASS  (GROTH - 1921)        :  DITETRAGONAL DIPYRAMIDAL             

 SPACE GROUP (CENTROSYMMETRIC)        :  P 4/M M M       

 LATTICE PARAMETERS  (ANGSTROMS AND DEGREES) - CONVENTIONAL CELL
        A           B           C        ALPHA        BETA       GAMMA
     7.85570     7.85570     3.43380    90.00000    90.00000    90.00000


 NUMBER OF IRREDUCIBLE ATOMS IN THE CONVENTIONAL CELL:   16

 INPUT COORDINATES

 ATOM AT. N.              COORDINATES
   1 238     2.500000000000E-01  7.500000000000E-01  5.000000000000E-01
   2 238     2.500000000000E-01  2.500000000000E-01  5.000000000000E-01
   3 238     7.500000000000E-01  2.500000000000E-01  5.000000000000E-01
   4 238     7.500000000000E-01  7.500000000000E-01  5.000000000000E-01
   5 229     5.000000000000E-01  5.000000000000E-01  0.000000000000E+00
   6 229     0.000000000000E+00  5.000000000000E-01  0.000000000000E+00
   7 229     0.000000000000E+00  0.000000000000E+00  0.000000000000E+00
   8 229     5.000000000000E-01  0.000000000000E+00  0.000000000000E+00
   9 208     0.000000000000E+00  2.500000000000E-01  0.000000000000E+00
  10 208     7.500000000000E-01  5.000000000000E-01  0.000000000000E+00
  11 208     5.000000000000E-01  2.500000000000E-01  0.000000000000E+00
  12 208     2.500000000000E-01  5.000000000000E-01  0.000000000000E+00
  13 208     7.500000000000E-01  0.000000000000E+00  0.000000000000E+00
  14 208     0.000000000000E+00  7.500000000000E-01  0.000000000000E+00
  15 208     5.000000000000E-01  7.500000000000E-01  0.000000000000E+00
  16 208     2.500000000000E-01  0.000000000000E+00  0.000000000000E+00

 *******************************************************************************

 << INFORMATION >>: FROM NOW ON, ALL COORDINATES REFER TO THE PRIMITIVE CELL

 *******************************************************************************

 LATTICE PARAMETERS  (ANGSTROMS AND DEGREES) - PRIMITIVE CELL
       A          B          C        ALPHA      BETA     GAMMA        VOLUME
    7.85570    7.85570    3.43380    90.00000  90.00000  90.00000    211.906743

 INPUT LIST - ATOM N.   3 NOT IRREDUCIBLE

 INPUT LIST - ATOM N.   2 NOT IRREDUCIBLE

 INPUT LIST - ATOM N.   4 NOT IRREDUCIBLE

 INPUT LIST - ATOM N.   7 NOT IRREDUCIBLE

 INPUT LIST - ATOM N.  15 NOT IRREDUCIBLE

 INPUT LIST - ATOM N.  14 NOT IRREDUCIBLE

 INPUT LIST - ATOM N.  11 NOT IRREDUCIBLE

 INPUT LIST - ATOM N.  10 NOT IRREDUCIBLE

 INPUT LIST - ATOM N.  16 NOT IRREDUCIBLE

 INPUT LIST - ATOM N.  12 NOT IRREDUCIBLE

 COORDINATES OF THE EQUIVALENT ATOMS (FRACTIONAL UNITS)

 N. ATOM EQUIV AT. N.          X                  Y                  Z

   1   1   1  238 SR    2.50000000000E-01 -2.50000000000E-01 -5.00000000000E-01
   2   1   2  238 SR   -2.50000000000E-01  2.50000000000E-01 -5.00000000000E-01
   3   1   3  238 SR    2.50000000000E-01  2.50000000000E-01  5.00000000000E-01
   4   1   4  238 SR   -2.50000000000E-01 -2.50000000000E-01  5.00000000000E-01




   5   5   1  229 CU   -5.00000000000E-01 -5.00000000000E-01  0.00000000000E+00

   6   6   1  229 CU    0.00000000000E+00 -5.00000000000E-01  0.00000000000E+00
   7   6   2  229 CU    5.00000000000E-01  0.00000000000E+00  0.00000000000E+00

 NUMBER OF SYMMETRY OPERATORS         :   16
 *******************************************************************************
 * GEOMETRY EDITING - INPUT COORDINATES ARE GIVEN IN ANGSTROM         
 *******************************************************************************

 GEOMETRY NOW FULLY CONSISTENT WITH THE GROUP
 SSSSSSSSSSSSSSSSSSSSSSSSSSSSSSSSSSSSSSSSSSSSSSSSSSSSSSSSSSSSSSSSSSSSSSSSSSSSSS
 REDUCTION OF SYMMETRY - ATOMIC LABELS SET TO (ATOM, AT. N., LABEL)
   1(238) 1;   2(238) 1;   3(238) 1;   4(238) 1;   5(229) 2;   6(229) 3;
   7(229) 2;   8(229) 3;   9(208) 4;  10(208) 4;  11(208) 4;  12(208) 4;
  13(208) 4;  14(208) 4;  15(208) 4;  16(208) 4;
 THE NUMBER OF SYMMETRY OPERATORS HAS BEEN REDUCED FROM 16 TO  8
 *******************************************************************************

 GCALCO - MAX INDICES DIRECT LATTICE VECTOR    11    11    25
 NO.OF VECTORS CREATED 6999 STARS  550 RMAX   133.78549 BOHR

 GEOMETRY FOR WAVE FUNCTION - DIMENSIONALITY OF THE SYSTEM    3
 (NON PERIODIC DIRECTION: LATTICE PARAMETER FORMALLY SET TO 500)
 *******************************************************************************
 LATTICE PARAMETERS (ANGSTROMS AND DEGREES) - BOHR = 0.5291772083 ANGSTROM
 PRIMITIVE CELL - CENTRING CODE 1/1 VOLUME=   211.906743 - DENSITY  5.731 g/cm^3
         A              B              C           ALPHA      BETA       GAMMA 
     7.85570000     7.85570000     3.43380000    90.000000  90.000000  90.000000
 *******************************************************************************
 ATOMS IN THE ASYMMETRIC UNIT    9 - ATOMS IN THE UNIT CELL:   16
     ATOM                 X/A                 Y/B                 Z/C    
 *******************************************************************************
      1 T 238 SR    2.500000000000E-01 -2.500000000000E-01  5.000000000000E-01
      2 F 238 SR   -2.500000000000E-01  2.500000000000E-01  5.000000000000E-01
      3 F 238 SR    2.500000000000E-01  2.500000000000E-01  5.000000000000E-01
      4 F 238 SR   -2.500000000000E-01 -2.500000000000E-01  5.000000000000E-01
      5 T 229 CU   -5.000000000000E-01 -5.000000000000E-01  0.000000000000E+00
      6 T 229 CU    0.000000000000E+00 -5.000000000000E-01  0.000000000000E+00
      7 T 229 CU   -5.000000000000E-01  0.000000000000E+00  0.000000000000E+00
      8 T 229 CU    0.000000000000E+00  0.000000000000E+00  0.000000000000E+00
      9 T 208 O     0.000000000000E+00  2.500000000000E-01  0.000000000000E+00
     10 F 208 O     0.000000000000E+00 -2.500000000000E-01  0.000000000000E+00
     11 T 208 O    -2.500000000000E-01  0.000000000000E+00  0.000000000000E+00
     12 F 208 O     2.500000000000E-01  0.000000000000E+00  0.000000000000E+00
     13 T 208 O    -2.500000000000E-01 -5.000000000000E-01  0.000000000000E+00
     14 F 208 O     2.500000000000E-01 -5.000000000000E-01  0.000000000000E+00
     15 T 208 O    -5.000000000000E-01  2.500000000000E-01  0.000000000000E+00
     16 F 208 O    -5.000000000000E-01 -2.500000000000E-01  0.000000000000E+00

 T = ATOM BELONGING TO THE ASYMMETRIC UNIT

 ****    8 SYMMOPS - TRANSLATORS IN FRACTIONAL UNITS
 **** MATRICES AND TRANSLATORS IN THE CRYSTALLOGRAPHIC REFERENCE FRAME
   V INV                    ROTATION MATRICES                   TRANSLATORS
   1   1  1.00  0.00  0.00  0.00  1.00  0.00  0.00  0.00  1.00  0.00  0.00  0.00
   2   2 -1.00  0.00  0.00  0.00 -1.00  0.00  0.00  0.00  1.00  0.00  0.00  0.00
   3   3  1.00  0.00  0.00  0.00 -1.00  0.00  0.00  0.00 -1.00  0.00  0.00  0.00
   4   4 -1.00  0.00  0.00  0.00  1.00  0.00  0.00  0.00 -1.00  0.00  0.00  0.00
   5   5 -1.00  0.00  0.00  0.00 -1.00  0.00  0.00  0.00 -1.00  0.00  0.00  0.00
   6   6  1.00  0.00  0.00  0.00  1.00  0.00  0.00  0.00 -1.00  0.00  0.00  0.00
   7   7 -1.00  0.00  0.00  0.00  1.00  0.00  0.00  0.00  1.00  0.00  0.00  0.00
   8   8  1.00  0.00  0.00  0.00 -1.00  0.00  0.00  0.00  1.00  0.00  0.00  0.00

 DIRECT LATTICE VECTORS CARTESIAN COMPONENTS (ANGSTROM)
          X                    Y                    Z
   0.785570000000E+01   0.000000000000E+00   0.000000000000E+00
   0.000000000000E+00   0.785570000000E+01   0.000000000000E+00
   0.000000000000E+00   0.000000000000E+00   0.343380000000E+01


 CARTESIAN COORDINATES - PRIMITIVE CELL
 *******************************************************************************
 *      ATOM          X(ANGSTROM)         Y(ANGSTROM)         Z(ANGSTROM)
 *******************************************************************************
    1   238 SR    1.963925000000E+00 -1.963925000000E+00  1.716900000000E+00
    2   238 SR   -1.963925000000E+00  1.963925000000E+00  1.716900000000E+00
    3   238 SR    1.963925000000E+00  1.963925000000E+00  1.716900000000E+00
    4   238 SR   -1.963925000000E+00 -1.963925000000E+00  1.716900000000E+00
    5   229 CU    3.927850000000E+00  3.927850000000E+00  0.000000000000E+00
    6   229 CU    0.000000000000E+00  3.927850000000E+00  0.000000000000E+00
    7   229 CU    3.927850000000E+00  0.000000000000E+00  0.000000000000E+00
    8   229 CU    0.000000000000E+00  0.000000000000E+00  0.000000000000E+00
    9   208 O     0.000000000000E+00  1.963925000000E+00  0.000000000000E+00
   10   208 O     0.000000000000E+00 -1.963925000000E+00  0.000000000000E+00
   11   208 O    -1.963925000000E+00  0.000000000000E+00  0.000000000000E+00
   12   208 O     1.963925000000E+00  0.000000000000E+00  0.000000000000E+00
   13   208 O    -1.963925000000E+00  3.927850000000E+00  0.000000000000E+00
   14   208 O     1.963925000000E+00  3.927850000000E+00  0.000000000000E+00
   15   208 O     3.927850000000E+00  1.963925000000E+00  0.000000000000E+00
   16   208 O     3.927850000000E+00 -1.963925000000E+00  0.000000000000E+00

 *******************************************************************************
 *** PSEUDOPOTENTIAL INFORMATION ***
 *******************************************************************************

 ATOMIC NUMBER  29, NUCLEAR CHARGE 19.000, GIVEN IN INPUT       PSEUDOPOTENTIAL
   TYPE       EXPONENT      COEFF.    N      EXPONENT      COEFF.    N
  W0 TMS     6.2514963   19.0000000  -1     6.7272533  118.7784294   1
             6.6102459 -105.8998240   0
  P0 TMS    12.3656871  127.3506942   0
  P1 TMS    11.1607294   71.2298490   0

 ATOMIC NUMBER   8, NUCLEAR CHARGE  6.000, GIVEN IN INPUT       PSEUDOPOTENTIAL
   TYPE       EXPONENT      COEFF.    N      EXPONENT      COEFF.    N
  W0 TMS     9.2979390    6.0000000  -1     8.8649220   55.7876342   1
             8.6292567  -38.8197850   0
  P0 TMS     8.7192445   38.4191413   0

 ATOMIC NUMBER  38, NUCLEAR CHARGE  2.000, GIVEN IN INPUT       PSEUDOPOTENTIAL
   TYPE       EXPONENT      COEFF.    N      EXPONENT      COEFF.    N
  W0 TMS     4.3839388    2.0000000  -1     3.1964983    8.7678775   1
             0.9899150  -14.2552431   0
  P0 TMS     1.2868349  146.8716052   0
  P1 TMS     0.9567448  140.0262284   0
  P2 TMS     1.9483165   24.4454878   0

 *******************************************************************************
 LOCAL ATOMIC FUNCTIONS BASIS SET
 *******************************************************************************
   ATOM   X(AU)   Y(AU)   Z(AU)  N. TYPE  EXPONENT  S COEF   P COEF   D/F/G COEF
 *******************************************************************************
   1 SR   3.711  -3.711   3.244
                                  1 S  
                                         2.177E-01-9.389E-02 0.000E+00 0.000E+00
                                         4.871E-01-2.476E-01 0.000E+00 0.000E+00
                                         1.090E+00 1.601E-01 0.000E+00 0.000E+00
                                         2.439E+00-4.360E-02 0.000E+00 0.000E+00
                                         5.457E+00 8.684E-03 0.000E+00 0.000E+00
                                         1.221E+01-1.296E-03 0.000E+00 0.000E+00
                           2-     4 P  
                                         2.236E-01 0.000E+00-4.747E-02 0.000E+00
                                         4.507E-01 0.000E+00-1.710E-01 0.000E+00
                                         9.086E-01 0.000E+00 1.048E-01 0.000E+00
                                         1.831E+00 0.000E+00-2.952E-02 0.000E+00
                                         3.692E+00 0.000E+00 6.196E-03 0.000E+00
                                         7.442E+00 0.000E+00-9.550E-04 0.000E+00
                           5-     9 D  
                                         5.283E-01 0.000E+00 0.000E+00 1.000E+00
                                 10 S  
                                         2.000E-01 1.000E+00 0.000E+00 0.000E+00
                                 11 S  
                                         6.000E-01 1.000E+00 0.000E+00 0.000E+00
                          12-    14 P  
                                         2.000E-01 0.000E+00 1.000E+00 0.000E+00
                          15-    17 P  
                                         6.000E-01 0.000E+00 1.000E+00 0.000E+00
   2 SR  -3.711   3.711   3.244
   3 SR   3.711   3.711   3.244
   4 SR  -3.711  -3.711   3.244
   5 CU   7.423   7.423   0.000
                                 69 S  
                                         2.785E+01-1.934E-02 0.000E+00 0.000E+00
                                         2.142E+01 8.861E-02 0.000E+00 0.000E+00
                                         1.054E+01-3.559E-01 0.000E+00 0.000E+00
                                         2.536E+00 5.381E-01 0.000E+00 0.000E+00
                                         1.250E+00 5.111E-01 0.000E+00 0.000E+00
                                         5.998E-01 1.476E-01 0.000E+00 0.000E+00
                                 70 S  
                                         2.785E+01-2.653E-03 0.000E+00 0.000E+00
                                         2.142E+01-7.542E-03 0.000E+00 0.000E+00
                                         1.054E+01 7.976E-02 0.000E+00 0.000E+00
                                         2.536E+00-1.553E-01 0.000E+00 0.000E+00
                                         1.250E+00-2.531E-01 0.000E+00 0.000E+00
                                         5.998E-01-2.817E-02 0.000E+00 0.000E+00
                          71-    73 P  
                                         1.859E+01 0.000E+00 3.652E-03 0.000E+00
                                         1.430E+01 0.000E+00-3.708E-02 0.000E+00
                                         5.631E+00 0.000E+00 2.171E-01 0.000E+00
                                         2.683E+00 0.000E+00 4.410E-01 0.000E+00
                                         1.259E+00 0.000E+00 3.587E-01 0.000E+00
                                         5.741E-01 0.000E+00 1.148E-01 0.000E+00
                                         2.092E-01 0.000E+00 7.316E-03 0.000E+00
                          74-    78 D  
                                         1.579E+01 0.000E+00 0.000E+00 8.422E-02
                                         7.203E+00 0.000E+00 0.000E+00 2.554E-01
                                         2.974E+00 0.000E+00 0.000E+00 3.500E-01
                                         1.207E+00 0.000E+00 0.000E+00 3.417E-01
                                         4.640E-01 0.000E+00 0.000E+00 2.417E-01
                          79-    85 F  
                                         1.692E+00 0.000E+00 0.000E+00 1.000E+00
                                 86 S  
                                         2.000E-01 1.000E+00 0.000E+00 0.000E+00
                                 87 S  
                                         6.000E-01 1.000E+00 0.000E+00 0.000E+00
                          88-    90 P  
                                         2.000E-01 0.000E+00 1.000E+00 0.000E+00
                          91-    93 P  
                                         6.000E-01 0.000E+00 1.000E+00 0.000E+00
                          94-    98 D  
                                         2.000E-01 0.000E+00 0.000E+00 1.000E+00
                          99-   103 D  
                                         6.000E-01 0.000E+00 0.000E+00 1.000E+00
   6 CU   0.000   7.423   0.000
   7 CU   7.423   0.000   0.000
   8 CU   0.000   0.000   0.000
   9 O    0.000   3.711   0.000
                                209 S  
                                         2.680E-01 3.048E-01 0.000E+00 0.000E+00
                                         5.731E-01 4.538E-01 0.000E+00 0.000E+00
                                         1.225E+00 2.959E-01 0.000E+00 0.000E+00
                                         2.620E+00 1.957E-02 0.000E+00 0.000E+00
                                         5.603E+00-1.286E-01 0.000E+00 0.000E+00
                                         1.198E+01 1.202E-02 0.000E+00 0.000E+00
                                         2.562E+01 4.070E-04 0.000E+00 0.000E+00
                                         5.478E+01-7.600E-05 0.000E+00 0.000E+00
                         210-   212 P  
                                         3.337E-01 0.000E+00 2.560E-01 0.000E+00
                                         6.666E-01 0.000E+00 2.819E-01 0.000E+00
                                         1.332E+00 0.000E+00 2.428E-01 0.000E+00
                                         2.661E+00 0.000E+00 1.611E-01 0.000E+00
                                         5.316E+00 0.000E+00 8.231E-02 0.000E+00
                                         1.062E+01 0.000E+00 3.990E-02 0.000E+00
                                         2.122E+01 0.000E+00 4.679E-03 0.000E+00
                         213-   217 D  
                                         6.693E-01 0.000E+00 0.000E+00 1.000E+00
                         218-   224 F  
                                         1.423E+00 0.000E+00 0.000E+00 1.000E+00
                                225 S  
                                         2.000E-01 1.000E+00 0.000E+00 0.000E+00
                                226 S  
                                         6.000E-01 1.000E+00 0.000E+00 0.000E+00
                         227-   229 P  
                                         2.000E-01 0.000E+00 1.000E+00 0.000E+00
                         230-   232 P  
                                         6.000E-01 0.000E+00 1.000E+00 0.000E+00
  10 O    0.000  -3.711   0.000
  11 O   -3.711   0.000   0.000
  12 O    3.711   0.000   0.000
  13 O   -3.711   7.423   0.000
  14 O    3.711   7.423   0.000
  15 O    7.423   3.711   0.000
  16 O    7.423  -3.711   0.000
 INFORMATION **** SET_MPP **** PCRYSTAL CALCULATION
 INFORMATION **** READM2 **** NEW DEFAULT: FOCK/KS MATRIX MIXING SET TO 30 %
 INFORMATION **** READM2 **** NEW DEFAULT: FULL DIRECT SCF MODE
 INFORMATION **** READM2 **** NEW DEFAULT: COULOMB BIPOLAR BUFFER SET TO 32 Mb
 INFORMATION **** READM2 **** NEW DEFAULT: EXCHANGE BIPOLAR BUFFER SET TO 32 Mb

 *******************************************************************************
 NEW DEFAULT: DFT INTEGRATION GRID INCREASED TO XLGRID
 NEW DEFAULT: DIIS ACCELERATOR ACTIVE
 USE KEYWORD NODIIS TO TURN IT OFF
 *******************************************************************************

 WARNING **** RDDFTP **** HSEsol-HJS ACTIVE
 RANGE SEPARATION - OMEGA:   0.110000000000000     
 INFORMATION **** READM2 **** FULL DIRECT SCF (MONO AND BIEL INT) SELECTED
 INFORMATION **** BIPOSIZE **** COULOMB BIPOLAR BUFFER SET TO   100000000
 INFORMATION **** EXCHSIZE **** EXCHANGE BIPOLAR BUFFER SIZE SET TO    10000000
 INFORMATION **** TOLDEE **** SCF TOL ON TOTAL ENERGY SET TO          10
 INFORMATION **** TOLINTEG **** COULOMB AND EXCHANGE SERIES TOLERANCES MODIFIED
 INFORMATION **** MAXCYCLE **** MAX NUMBER OF SCF CYCLES SET TO         200
 INFORMATION **** SMEAR **** FERMI SMEARING ACTIVE
 FERMI SMEARING - TEMPERATURE SMEARING OF FERMI SURFACE  0.1000E-12
 INFORMATION **** SAVEWF **** not fully tested
 INFORMATION **** SPINLOCK **** LOCK IN A GIVEN SPIN STATE
 ALPHA-BETA ELECTRONS LOCKED TO   0 FOR 200 SCF CYCLES
 SSSSSSSSSSSSSSSSSSSSSSSSSSSSSSSSSSSSSSSSSSSSSSSSSSSSSSSSSSSSSSSSSSSSSSSSSSSSSS
 ATOMIC SPINS SET TO (ATOM, AT. N., SPIN)
   1 238 0   2 238 0   3 238 0   4 238 0   5 229 1   6 229-1   7 229-1   8 229 1
   9 208 0  10 208 0  11 208 0  12 208 0  13 208 0  14 208 0  15 208 0  16 208 0

 MODIFIED BROYDEN MIXING OF THE FOCK MATRIX
 WO PARAMETER(D.D. Johnson, PRB38, 12807,(1988)             1.0000E-02
 % OF FOCK/KS MATRICES MIXING WHEN BROYDEN METHOD IS ON             60
 NUMBER OF SCF ITERATIONS AFTER WHICH BROYDEN METHOD IS ACTIVE      15
 *******************************************************************************
 N. OF ATOMS PER CELL        16  COULOMB OVERLAP TOL         (T1) 10**   -8
 NUMBER OF SHELLS           136  COULOMB PENETRATION TOL     (T2) 10**   -8
 NUMBER OF AO               400  EXCHANGE OVERLAP TOL        (T3) 10**   -8
 N. OF ELECTRONS PER CELL   132  EXCHANGE PSEUDO OVP (F(G))  (T4) 10**   -8
 CORE ELECTRONS PER CELL      0  EXCHANGE PSEUDO OVP (P(G))  (T5) 10**  -16
 N. OF SYMMETRY OPERATORS     8  POLE ORDER IN MONO ZONE                  4
 *******************************************************************************
 TYPE OF CALCULATION :  UNRESTRICTED OPEN SHELL
 KOHN-SHAM HAMILTONIAN

 (EXCHANGE)[CORRELATION] FUNCTIONAL:(HSEsol GGA)[PBEsol]

 RANGE-SEPARATED HYBRID FUNCTIONAL 
 OMEGA (SHORT-RANGE)[LONG-RANGE]:(    0.1100)[    0.0000]

 HYBRID EXCHANGE - PERCENTAGE OF FOCK EXCHANGE    25.0000

 SPIN POLARIZED DFT SELECTED
 CORE  PSEUDO POTENTIAL         TOL. ON PSEUDO              (TP) 10**- 6

 CAPPA:IS1  4;IS2  4;IS3  4; K PTS MONK NET  27; SYMMOPS:K SPACE   8;G SPACE   8

 *******************************************************************************
 MAX NUMBER OF SCF CYCLES     200  CONVERGENCE ON DELTAP        10**-20
 WEIGHT OF F(I) IN F(I+1)      90% CONVERGENCE ON ENERGY        10**-10
 SHRINK. FACT.(MONKH.)    4  4  4  NUMBER OF K POINTS IN THE IBZ     27
 SHRINKING FACTOR(GILAT NET)    8  NUMBER OF K POINTS(GILAT NET)    125
 *******************************************************************************
 *** K POINTS COORDINATES (OBLIQUE COORDINATES IN UNITS OF IS =  4)
   1-R(  0  0  0)   2-C(  1  0  0)   3-R(  2  0  0)   4-C(  0  1  0)
   5-C(  1  1  0)   6-C(  2  1  0)   7-R(  0  2  0)   8-C(  1  2  0)
   9-R(  2  2  0)  10-C(  0  0  1)  11-C(  1  0  1)  12-C(  2  0  1)
  13-C(  0  1  1)  14-C(  1  1  1)  15-C(  2  1  1)  16-C(  0  2  1)
  17-C(  1  2  1)  18-C(  2  2  1)  19-R(  0  0  2)  20-C(  1  0  2)
  21-R(  2  0  2)  22-C(  0  1  2)  23-C(  1  1  2)  24-C(  2  1  2)
  25-R(  0  2  2)  26-C(  1  2  2)  27-R(  2  2  2)

 DIRECT LATTICE VECTORS COMPON. (A.U.)     RECIP. LATTICE VECTORS COMPON. (A.U.) 
        X            Y            Z              X            Y            Z
   14.8451216    0.0000000    0.0000000      0.4232492    0.0000000    0.0000000
    0.0000000   14.8451216    0.0000000      0.0000000    0.4232492    0.0000000
    0.0000000    0.0000000    6.4889416      0.0000000    0.0000000    0.9682912

 DISK SPACE FOR EIGENVECTORS (FTN 10)     7360000 REALS

 SYMMETRY ADAPTION OF THE BLOCH FUNCTIONS ENABLED
 TTTTTTTTTTTTTTTTTTTTTTTTTTTTTT gordsh1     TELAPSE        1.63 TCPU        0.03

 MATRIX SIZE: P(G) 1263000, F(G)  225436, P(G) IRR  128114, F(G) IRR   54066
 MAX G-VECTOR INDEX FOR 1- AND 2-ELECTRON INTEGRALS 103

 TTTTTTTTTTTTTTTTTTTTTTTTTTTTTT INPUT       TELAPSE        1.68 TCPU        0.08

 NEIGHBORS OF THE NON-EQUIVALENT ATOMS

 N = NUMBER OF NEIGHBORS AT DISTANCE R
    ATOM  N     R/ANG      R/AU   NEIGHBORS (ATOM LABELS AND CELL INDICES)
   1 SR   8     2.6086     4.9295   10 O    0 0 0   10 O    0 0 1   12 O    0 0 0
                                    12 O    0 0 1   14 O    0-1 0   14 O    0-1 1
                                    16 O    0 0 0   16 O    0 0 1
   1 SR   8     3.2652     6.1704    5 CU   0-1 0    5 CU   0-1 1    6 CU   0-1 0
                                     6 CU   0-1 1    7 CU   0 0 0    7 CU   0 0 1
                                     8 CU   0 0 0    8 CU   0 0 1
   1 SR   2     3.4338     6.4889    1 SR   0 0-1    1 SR   0 0 1
   1 SR   4     3.9278     7.4226    3 SR   0 0 0    3 SR   0-1 0    4 SR   0 0 0
                                     4 SR   1 0 0
   1 SR  16     4.7152     8.9104    9 O    0 0 0    9 O    0 0 1    9 O    0-1 0
                                     9 O    0-1 1   11 O    0 0 0   11 O    0 0 1
                                    11 O    1 0 0   11 O    1 0 1   13 O    0-1 0
                                    13 O    0-1 1   13 O    1-1 0   13 O    1-1 1
                                    15 O    0 0 0   15 O    0 0 1   15 O    0-1 0
                                    15 O    0-1 1
   1 SR   8     5.2172     9.8590    3 SR   0 0 1    3 SR   0 0-1    3 SR   0-1-1
                                     3 SR   0-1 1    4 SR   0 0-1    4 SR   0 0 1
                                     4 SR   1 0 1    4 SR   1 0-1

   5 CU   4     1.9639     3.7113   13 O    1 0 0   14 O    0 0 0   15 O    0 0 0
                                    16 O    0 1 0
   5 CU   8     3.2652     6.1704    1 SR   0 1 0    1 SR   0 1-1    2 SR   1 0 0
                                     2 SR   1 0-1    3 SR   0 0-1    3 SR   0 0 0
                                     4 SR   1 1-1    4 SR   1 1 0
   5 CU   2     3.4338     6.4889    5 CU   0 0-1    5 CU   0 0 1
   5 CU   4     3.9278     7.4226    6 CU   0 0 0    6 CU   1 0 0    7 CU   0 0 0
                                     7 CU   0 1 0
   5 CU   8     3.9558     7.4753   13 O    1 0 1   13 O    1 0-1   14 O    0 0 1
                                    14 O    0 0-1   15 O    0 0 1   15 O    0 0-1
                                    16 O    0 1 1   16 O    0 1-1
   5 CU   8     4.3915     8.2987    9 O    0 0 0    9 O    1 0 0   10 O    1 1 0
                                    10 O    0 1 0   11 O    1 0 0   11 O    1 1 0
                                    12 O    0 1 0   12 O    0 0 0

   6 CU   4     1.9639     3.7113    9 O    0 0 0   10 O    0 1 0   13 O    0 0 0
                                    14 O    0 0 0
   6 CU   8     3.2652     6.1704    1 SR   0 1 0    1 SR   0 1-1    2 SR   0 0 0
                                     2 SR   0 0-1    3 SR   0 0-1    3 SR   0 0 0
                                     4 SR   0 1-1    4 SR   0 1 0
   6 CU   2     3.4338     6.4889    6 CU   0 0-1    6 CU   0 0 1
   6 CU   4     3.9278     7.4226    5 CU   0 0 0    5 CU  -1 0 0    8 CU   0 0 0
                                     8 CU   0 1 0
   6 CU   8     3.9558     7.4753    9 O    0 0 1    9 O    0 0-1   10 O    0 1 1
                                    10 O    0 1-1   13 O    0 0 1   13 O    0 0-1
                                    14 O    0 0-1   14 O    0 0 1
   6 CU   8     4.3915     8.2987   11 O    0 0 0   11 O    0 1 0   12 O    0 1 0
                                    12 O    0 0 0   15 O    0 0 0   15 O   -1 0 0
                                    16 O   -1 1 0   16 O    0 1 0

   7 CU   4     1.9639     3.7113   11 O    1 0 0   12 O    0 0 0   15 O    0 0 0
                                    16 O    0 0 0
   7 CU   8     3.2652     6.1704    1 SR   0 0 0    1 SR   0 0-1    2 SR   1 0 0
                                     2 SR   1 0-1    3 SR   0 0-1    3 SR   0 0 0
                                     4 SR   1 0-1    4 SR   1 0 0
   7 CU   2     3.4338     6.4889    7 CU   0 0-1    7 CU   0 0 1
   7 CU   4     3.9278     7.4226    5 CU   0 0 0    5 CU   0-1 0    8 CU   0 0 0
                                     8 CU   1 0 0
   7 CU   8     3.9558     7.4753   11 O    1 0 1   11 O    1 0-1   12 O    0 0 1
                                    12 O    0 0-1   15 O    0 0 1   15 O    0 0-1
                                    16 O    0 0-1   16 O    0 0 1
   7 CU   8     4.3915     8.2987    9 O    0 0 0    9 O    1 0 0   10 O    1 0 0
                                    10 O    0 0 0   13 O    1 0 0   13 O    1-1 0
                                    14 O    0-1 0   14 O    0 0 0

   8 CU   4     1.9639     3.7113    9 O    0 0 0   10 O    0 0 0   11 O    0 0 0
                                    12 O    0 0 0
   8 CU   8     3.2652     6.1704    1 SR   0 0 0    1 SR   0 0-1    2 SR   0 0 0
                                     2 SR   0 0-1    3 SR   0 0-1    3 SR   0 0 0
                                     4 SR   0 0-1    4 SR   0 0 0
   8 CU   2     3.4338     6.4889    8 CU   0 0-1    8 CU   0 0 1
   8 CU   4     3.9278     7.4226    6 CU   0 0 0    6 CU   0-1 0    7 CU   0 0 0
                                     7 CU  -1 0 0
   8 CU   8     3.9558     7.4753    9 O    0 0 1    9 O    0 0-1   10 O    0 0-1
                                    10 O    0 0 1   11 O    0 0 1   11 O    0 0-1
                                    12 O    0 0-1   12 O    0 0 1
   8 CU   8     4.3915     8.2987   13 O    0-1 0   13 O    0 0 0   14 O    0 0 0
                                    14 O    0-1 0   15 O   -1 0 0   15 O    0 0 0
                                    16 O    0 0 0   16 O   -1 0 0

   9 O    2     1.9639     3.7113    6 CU   0 0 0    8 CU   0 0 0
   9 O    4     2.6086     4.9295    2 SR   0 0 0    2 SR   0 0-1    3 SR   0 0 0
                                     3 SR   0 0-1
   9 O    4     2.7774     5.2485   11 O    0 0 0   12 O    0 0 0   13 O    0 0 0
                                    14 O    0 0 0
   9 O    2     3.4338     6.4889    9 O    0 0-1    9 O    0 0 1
   9 O    4     3.9278     7.4226   10 O    0 0 0   10 O    0 1 0   15 O    0 0 0
                                    15 O   -1 0 0
   9 O    4     3.9558     7.4753    6 CU   0 0-1    6 CU   0 0 1    8 CU   0 0-1
                                     8 CU   0 0 1

  11 O    2     1.9639     3.7113    7 CU  -1 0 0    8 CU   0 0 0
  11 O    4     2.6086     4.9295    2 SR   0 0 0    2 SR   0 0-1    4 SR   0 0 0
                                     4 SR   0 0-1
  11 O    4     2.7774     5.2485    9 O    0 0 0   10 O    0 0 0   15 O   -1 0 0
                                    16 O   -1 0 0
  11 O    2     3.4338     6.4889   11 O    0 0-1   11 O    0 0 1
  11 O    4     3.9278     7.4226   12 O    0 0 0   12 O   -1 0 0   13 O    0 0 0
                                    13 O    0-1 0
  11 O    4     3.9558     7.4753    7 CU  -1 0-1    7 CU  -1 0 1    8 CU   0 0-1
                                     8 CU   0 0 1

  13 O    2     1.9639     3.7113    5 CU  -1 0 0    6 CU   0 0 0
  13 O    4     2.6086     4.9295    2 SR   0 0 0    2 SR   0 0-1    4 SR   0 1 0
                                     4 SR   0 1-1
  13 O    4     2.7774     5.2485    9 O    0 0 0   10 O    0 1 0   15 O   -1 0 0
                                    16 O   -1 1 0
  13 O    2     3.4338     6.4889   13 O    0 0-1   13 O    0 0 1
  13 O    4     3.9278     7.4226   11 O    0 0 0   11 O    0 1 0   14 O    0 0 0
                                    14 O   -1 0 0
  13 O    4     3.9558     7.4753    5 CU  -1 0-1    5 CU  -1 0 1    6 CU   0 0-1
                                     6 CU   0 0 1

  15 O    2     1.9639     3.7113    5 CU   0 0 0    7 CU   0 0 0
  15 O    4     2.6086     4.9295    2 SR   1 0 0    2 SR   1 0-1    3 SR   0 0 0
                                     3 SR   0 0-1
  15 O    4     2.7774     5.2485   11 O    1 0 0   12 O    0 0 0   13 O    1 0 0
                                    14 O    0 0 0
  15 O    2     3.4338     6.4889   15 O    0 0-1   15 O    0 0 1
  15 O    4     3.9278     7.4226    9 O    0 0 0    9 O    1 0 0   16 O    0 0 0
                                    16 O    0 1 0
  15 O    4     3.9558     7.4753    5 CU   0 0-1    5 CU   0 0 1    7 CU   0 0-1
                                     7 CU   0 0 1


 SYMMETRY ALLOWED INTERNAL DEGREE(S) OF FREEDOM:   6
 TTTTTTTTTTTTTTTTTTTTTTTTTTTTTT SYMM        TELAPSE        2.07 TCPU        0.46
 TTTTTTTTTTTTTTTTTTTTTTTTTTTTTT INT_SCREEN  TELAPSE        2.08 TCPU        0.47

 DFT PARAMETERS

     ATOM       ELECTRONS   NET CHARGE   R(ANGSTROM)
   1 238  SR      2.0000      0.0000     2.15000000
   5 229  CU     19.0000      0.0000     1.28000000
   9 208  O       6.0000      0.0000     0.74000000
[golub052:91343] 15 more processes have sent help message help-mpi-btl-base.txt / btl:no-nics
[golub052:91343] Set MCA parameter "orte_base_help_aggregate" to 0 to see all help / error messages

 SIZE OF GRID=      45169
 TTTTTTTTTTTTTTTTTTTTTTTTTTTTTT MAKE_GRID2  TELAPSE        8.75 TCPU        7.13
 BECKE WEIGHT FUNCTION
 RADSAFE =     2.00
 TOLERANCES - DENSITY:10**- 6; POTENTIAL:10**- 9; GRID WGT:10**-14

 RADIAL INTEGRATION  - INTERVALS (POINTS,UPPER LIMIT):            1( 75,  4.0*R)

 ANGULAR INTEGRATION - INTERVALS (ACCURACY LEVEL [N. POINTS] UPPER LIMIT):
  1(  4[  86]   0.2)  2(  8[ 194]   0.5)  3( 12[ 350]   0.9)  4( 16[ 974]   3.5)
  5( 12[ 350]9999.0)
 TTTTTTTTTTTTTTTTTTTTTTTTTTTTTT INT_CALC    TELAPSE        8.81 TCPU        7.20
 EEEEEEEEEE INT_CALC TERMINATION  DATE 28 11 2017 TIME 22:23:30.4

 *******************************************************************************
 Generated by CrystalWriter                                                      
 CRYSTAL - SCF - TYPE OF CALCULATION :  UNRESTRICTED OPEN SHELL
 *******************************************************************************

 CAPPA:IS1  4;IS2  4;IS3  4; K PTS MONK NET  27; SYMMOPS:K SPACE   8;G SPACE   8

 TTTTTTTTTTTTTTTTTTTTTTTTTTTTTT SDIK        TELAPSE        9.01 TCPU        7.25

 AAAAAAAAAAAAAAAAAAAAAAAAAAAAAAAAAAAAAAAAAAAAAAAAAAAAAAAAAAAAAAAAAAAAAAAAAAAAAAA
         ATOMIC WAVEFUNCTION(S)


 NUCLEAR CHARGE  2.0  SYMMETRY SPECIES            S
 N. ELECTRONS    2.0  NUMBER OF PRIMITIVE GTOS    8
                      NUMBER OF CONTRACTED GTOS   3
                      NUMBER OF CLOSED SHELLS     1
                      OPEN SHELL OCCUPATION       0

  ZNUC SCFIT  TOTAL HF ENERGY   KINETIC ENERGY   VIRIAL THEOREM ACCURACY
   2.0   2    4.768442247E-02  9.318589797E-01 -9.488287139E-01  3.2E-06

 NUCLEAR CHARGE 19.0  SYMMETRY SPECIES            S    P    D
 N. ELECTRONS   19.0  NUMBER OF PRIMITIVE GTOS   14    9    7
                      NUMBER OF CONTRACTED GTOS   4    3    3
                      NUMBER OF CLOSED SHELLS     2    1    0
                      OPEN SHELL OCCUPATION       0    0    9

  ZNUC SCFIT  TOTAL HF ENERGY   KINETIC ENERGY   VIRIAL THEOREM ACCURACY
  19.0  29   -1.960760767E+02  1.241876446E+02 -2.578869438E+00  4.6E-06

 NUCLEAR CHARGE  6.0  SYMMETRY SPECIES            S    P
 N. ELECTRONS    6.0  NUMBER OF PRIMITIVE GTOS   10    9
                      NUMBER OF CONTRACTED GTOS   3    3
                      NUMBER OF CLOSED SHELLS     1    0
                      OPEN SHELL OCCUPATION       0    4

  ZNUC SCFIT  TOTAL HF ENERGY   KINETIC ENERGY   VIRIAL THEOREM ACCURACY
   6.0  12   -1.570132578E+01  1.165279602E+01 -2.347429900E+00  3.6E-06

 AAAAAAAAAAAAAAAAAAAAAAAAAAAAAAAAAAAAAAAAAAAAAAAAAAAAAAAAAAAAAAAAAAAAAAAAAAAAAAA

 CHARGE NORMALIZATION FACTOR   1.00000000
 TOTAL ATOMIC CHARGES:
   2.0000000   2.0000000   2.0000000   2.0000000  19.0000000  19.0000000
  19.0000000  19.0000000   6.0000000   6.0000000   6.0000000   6.0000000
   6.0000000   6.0000000   6.0000000   6.0000000
 SUMMED SPIN DENSITY           0.00000000
 TOTAL ATOMIC SPINS  :
   0.0000000   0.0000000   0.0000000   0.0000000   1.0000000  -1.0000000
  -1.0000000   1.0000000   0.0000000   0.0000000   0.0000000   0.0000000
   0.0000000   0.0000000   0.0000000   0.0000000
 TTTTTTTTTTTTTTTTTTTTTTTTTTTTTT MOQGAD      TELAPSE        9.15 TCPU        7.39
 TTTTTTTTTTTTTTTTTTTTTTTTTTTTTT SHELLXN     TELAPSE      431.43 TCPU      429.44
 TTTTTTTTTTTTTTTTTTTTTTTTTTTTTT MONMO3      TELAPSE      501.48 TCPU      499.47
 NUMERICALLY INTEGRATED DENSITY     66.0001976495     66.0001976496
 TTTTTTTTTTTTTTTTTTTTTTTTTTTTTT NUMDFT      TELAPSE      502.25 TCPU      500.23
 CYC   0 ETOT(AU) -9.150902396696E+02 DETOT -9.15E+02 tst  0.00E+00 PX  1.00E+00
 CYCLE  0 WAVE FUNCTION SAVED IN FORTRAN UNIT 79
 TTTTTTTTTTTTTTTTTTTTTTTTTTTTTT FDIK        TELAPSE      504.11 TCPU      501.98
 SPIN LOCKING: NO ENERGY GAP COMPUTED
 TTTTTTTTTTTTTTTTTTTTTTTTTTTTTT PDIG        TELAPSE      504.29 TCPU      502.16
 CHARGE NORMALIZATION FACTOR   1.00000000
 TOTAL ATOMIC CHARGES:
   0.1343837   0.1343837   0.1343837   0.1343837  17.7798446  17.7798417
  17.7798435  17.7798446   7.5428866   7.5428866   7.5428861   7.5428861
   7.5428866   7.5428866   7.5428861   7.5428861
 SUMMED SPIN DENSITY          -0.00000000
 TOTAL ATOMIC SPINS  :
   0.0000000   0.0000000   0.0000000   0.0000000   0.6333598  -0.6333607
  -0.6333605   0.6333599   0.0000002   0.0000002   0.0000001   0.0000001
   0.0000002   0.0000002   0.0000001   0.0000001
 TTTTTTTTTTTTTTTTTTTTTTTTTTTTTT MOQGAD      TELAPSE      504.32 TCPU      502.19
 TTTTTTTTTTTTTTTTTTTTTTTTTTTTTT SHELLXN     TELAPSE      935.63 TCPU      933.21
 TTTTTTTTTTTTTTTTTTTTTTTTTTTTTT MONMO3      TELAPSE     1006.63 TCPU     1004.18
 NUMERICALLY INTEGRATED DENSITY     66.0004002073     66.0004001686
 TTTTTTTTTTTTTTTTTTTTTTTTTTTTTT NUMDFT      TELAPSE     1008.93 TCPU     1006.48
 CYC   1 ETOT(AU) -9.193290572654E+02 DETOT -4.24E+00 tst  0.00E+00 PX  1.00E+00
 CYCLE  1 WAVE FUNCTION SAVED IN FORTRAN UNIT 79
 TTTTTTTTTTTTTTTTTTTTTTTTTTTTTT FDIK        TELAPSE     1009.80 TCPU     1006.90
 SPIN LOCKING: NO ENERGY GAP COMPUTED
 TTTTTTTTTTTTTTTTTTTTTTTTTTTTTT PDIG        TELAPSE     1010.06 TCPU     1007.09
 CHARGE NORMALIZATION FACTOR   1.00000000
 TOTAL ATOMIC CHARGES:
   0.1420055   0.1420055   0.1420055   0.1420055  17.9030186  17.9030622
  17.9029963  17.9030366   7.4774967   7.4774967   7.4774803   7.4774803
   7.4774567   7.4774567   7.4774984   7.4774984
 SUMMED SPIN DENSITY          -0.00000000
 TOTAL ATOMIC SPINS  :
   0.0000150   0.0000150   0.0000150   0.0000150   0.5700572  -0.5700306
  -0.5700476   0.5701203  -0.0000375  -0.0000375  -0.0000183  -0.0000183
  -0.0000229  -0.0000229  -0.0000008  -0.0000008
 TTTTTTTTTTTTTTTTTTTTTTTTTTTTTT MOQGAD      TELAPSE     1010.09 TCPU     1007.12
 TTTTTTTTTTTTTTTTTTTTTTTTTTTTTT SHELLXN     TELAPSE     1440.76 TCPU     1437.82
 TTTTTTTTTTTTTTTTTTTTTTTTTTTTTT MONMO3      TELAPSE     1511.54 TCPU     1508.61
 NUMERICALLY INTEGRATED DENSITY     66.0004240099     66.0004239670
 TTTTTTTTTTTTTTTTTTTTTTTTTTTTTT NUMDFT      TELAPSE     1513.78 TCPU     1510.85
 CYC   2 ETOT(AU) -9.198502285666E+02 DETOT -5.21E-01 tst  1.63E-03 PX  9.75E-02
 CYCLE  2 WAVE FUNCTION SAVED IN FORTRAN UNIT 79
 TTTTTTTTTTTTTTTTTTTTTTTTTTTTTT FDIK        TELAPSE     1514.34 TCPU     1511.08
 SPIN LOCKING: NO ENERGY GAP COMPUTED
 TTTTTTTTTTTTTTTTTTTTTTTTTTTTTT PDIG        TELAPSE     1514.53 TCPU     1511.27
 CHARGE NORMALIZATION FACTOR   1.00000000
 TOTAL ATOMIC CHARGES:
   0.1492837   0.1492837   0.1492837   0.1492837  17.9845499  17.9845647
  17.9845685  17.9845734   7.4330776   7.4330776   7.4330595   7.4330595
   7.4330749   7.4330749   7.4330924   7.4330924
 SUMMED SPIN DENSITY          -0.00000000
 TOTAL ATOMIC SPINS  :
   0.0000084   0.0000084   0.0000084   0.0000084   0.5293099  -0.5293120
  -0.5292637   0.5293026   0.0000107   0.0000107  -0.0000283  -0.0000283
  -0.0000174  -0.0000174  -0.0000002  -0.0000002
 TTTTTTTTTTTTTTTTTTTTTTTTTTTTTT MOQGAD      TELAPSE     1514.56 TCPU     1511.30
 TTTTTTTTTTTTTTTTTTTTTTTTTTTTTT SHELLXN     TELAPSE     1945.31 TCPU     1941.80
 TTTTTTTTTTTTTTTTTTTTTTTTTTTTTT MONMO3      TELAPSE     2016.32 TCPU     2012.79
 NUMERICALLY INTEGRATED DENSITY     66.0004397522     66.0004397174
 TTTTTTTTTTTTTTTTTTTTTTTTTTTTTT NUMDFT      TELAPSE     2018.55 TCPU     2015.02
 CYC   3 ETOT(AU) -9.200940708382E+02 DETOT -2.44E-01 tst  5.88E-04 PX  6.39E-02
 CYCLE  3 WAVE FUNCTION SAVED IN FORTRAN UNIT 79
 TTTTTTTTTTTTTTTTTTTTTTTTTTTTTT FDIK        TELAPSE     2019.29 TCPU     2015.59
 SPIN LOCKING: NO ENERGY GAP COMPUTED
 TTTTTTTTTTTTTTTTTTTTTTTTTTTTTT PDIG        TELAPSE     2019.48 TCPU     2015.77
 CHARGE NORMALIZATION FACTOR   1.00000000
 TOTAL ATOMIC CHARGES:
   0.1554716   0.1554716   0.1554716   0.1554716  18.0347001  18.0347011
  18.0347253  18.0347330   7.4049130   7.4049130   7.4049002   7.4049002
   7.4049056   7.4049056   7.4049082   7.4049082
 SUMMED SPIN DENSITY          -0.00000000
 TOTAL ATOMIC SPINS  :
   0.0000006   0.0000006   0.0000006   0.0000006   0.5060118  -0.5060336
  -0.5060265   0.5060376   0.0000057   0.0000057  -0.0000071  -0.0000071
  -0.0000042  -0.0000042   0.0000097   0.0000097
 TTTTTTTTTTTTTTTTTTTTTTTTTTTTTT MOQGAD      TELAPSE     2019.51 TCPU     2015.80
 TTTTTTTTTTTTTTTTTTTTTTTTTTTTTT SHELLXN     TELAPSE     2450.14 TCPU     2446.51
 TTTTTTTTTTTTTTTTTTTTTTTTTTTTTT MONMO3      TELAPSE     2520.74 TCPU     2517.13
 NUMERICALLY INTEGRATED DENSITY     66.0004501705     66.0004501261
 TTTTTTTTTTTTTTTTTTTTTTTTTTTTTT NUMDFT      TELAPSE     2522.97 TCPU     2519.36
 CYC   4 ETOT(AU) -9.202113573035E+02 DETOT -1.17E-01 tst  1.98E-04 PX  4.10E-02
 CYCLE  4 WAVE FUNCTION SAVED IN FORTRAN UNIT 79
 TTTTTTTTTTTTTTTTTTTTTTTTTTTTTT FDIK        TELAPSE     2523.62 TCPU     2519.80
 SPIN LOCKING: NO ENERGY GAP COMPUTED
 TTTTTTTTTTTTTTTTTTTTTTTTTTTTTT PDIG        TELAPSE     2523.80 TCPU     2519.98
 CHARGE NORMALIZATION FACTOR   1.00000000
 TOTAL ATOMIC CHARGES:
   0.1603908   0.1603908   0.1603908   0.1603908  18.0639663  18.0639508
  18.0639206  18.0639337   7.3878342   7.3878342   7.3878369   7.3878369
   7.3878279   7.3878279   7.3878337   7.3878337
 SUMMED SPIN DENSITY          -0.00000000
 TOTAL ATOMIC SPINS  :
  -0.0000007  -0.0000007  -0.0000007  -0.0000007   0.4943847  -0.4943755
  -0.4943816   0.4943815   0.0000002   0.0000002  -0.0000044  -0.0000044
  -0.0000006  -0.0000006   0.0000017   0.0000017
 TTTTTTTTTTTTTTTTTTTTTTTTTTTTTT MOQGAD      TELAPSE     2523.83 TCPU     2520.01
 TTTTTTTTTTTTTTTTTTTTTTTTTTTTTT SHELLXN     TELAPSE     2954.36 TCPU     2950.59
 TTTTTTTTTTTTTTTTTTTTTTTTTTTTTT MONMO3      TELAPSE     3025.05 TCPU     3021.28
 NUMERICALLY INTEGRATED DENSITY     66.0004571670     66.0004571288
 TTTTTTTTTTTTTTTTTTTTTTTTTTTTTT NUMDFT      TELAPSE     3027.27 TCPU     3023.51
 CYC   5 ETOT(AU) -9.202706857058E+02 DETOT -5.93E-02 tst  8.33E-05 PX  2.91E-02
 CYCLE  5 WAVE FUNCTION SAVED IN FORTRAN UNIT 79
 TTTTTTTTTTTTTTTTTTTTTTTTTTTTTT FDIK        TELAPSE     3027.91 TCPU     3023.89
 SPIN LOCKING: NO ENERGY GAP COMPUTED
 TTTTTTTTTTTTTTTTTTTTTTTTTTTTTT PDIG        TELAPSE     3028.11 TCPU     3024.08
 CHARGE NORMALIZATION FACTOR   1.00000000
 TOTAL ATOMIC CHARGES:
   0.1641592   0.1641592   0.1641592   0.1641592  18.0800405  18.0800656
  18.0800553  18.0800400   7.3778908   7.3778908   7.3779011   7.3779011
   7.3778959   7.3778959   7.3778931   7.3778931
 SUMMED SPIN DENSITY          -0.00000000
 TOTAL ATOMIC SPINS  :
  -0.0000004  -0.0000004  -0.0000004  -0.0000004   0.4893274  -0.4893478
  -0.4893523   0.4893408   0.0000001   0.0000001   0.0000056   0.0000056
   0.0000041   0.0000041   0.0000069   0.0000069
 TTTTTTTTTTTTTTTTTTTTTTTTTTTTTT MOQGAD      TELAPSE     3028.14 TCPU     3024.11
 TTTTTTTTTTTTTTTTTTTTTTTTTTTTTT SHELLXN     TELAPSE     3458.55 TCPU     3454.61
 TTTTTTTTTTTTTTTTTTTTTTTTTTTTTT MONMO3      TELAPSE     3530.88 TCPU     3526.95
 NUMERICALLY INTEGRATED DENSITY     66.0004619451     66.0004619045
 TTTTTTTTTTTTTTTTTTTTTTTTTTTTTT NUMDFT      TELAPSE     3533.11 TCPU     3529.19
 CYC   6 ETOT(AU) -9.203022826267E+02 DETOT -3.16E-02 tst  4.38E-05 PX  2.08E-02
 CYCLE  6 WAVE FUNCTION SAVED IN FORTRAN UNIT 79
 TTTTTTTTTTTTTTTTTTTTTTTTTTTTTT FDIK        TELAPSE     3534.02 TCPU     3529.54
 SPIN LOCKING: NO ENERGY GAP COMPUTED
 TTTTTTTTTTTTTTTTTTTTTTTTTTTTTT PDIG        TELAPSE     3534.22 TCPU     3529.74
 CHARGE NORMALIZATION FACTOR   1.00000000
 TOTAL ATOMIC CHARGES:
   0.1669568   0.1669568   0.1669568   0.1669568  18.0881444  18.0881594
  18.0881760  18.0881483   7.3724464   7.3724464   7.3724377   7.3724377
   7.3724441   7.3724441   7.3724441   7.3724441
 SUMMED SPIN DENSITY           0.00000000
 TOTAL ATOMIC SPINS  :
  -0.0000010  -0.0000010  -0.0000010  -0.0000010   0.4881909  -0.4881924
  -0.4881909   0.4881879   0.0000029   0.0000029  -0.0000011  -0.0000011
  -0.0000006  -0.0000006   0.0000030   0.0000030
 TTTTTTTTTTTTTTTTTTTTTTTTTTTTTT MOQGAD      TELAPSE     3534.25 TCPU     3529.77
 TTTTTTTTTTTTTTTTTTTTTTTTTTTTTT SHELLXN     TELAPSE     3964.74 TCPU     3960.34
 TTTTTTTTTTTTTTTTTTTTTTTTTTTTTT MONMO3      TELAPSE     4035.55 TCPU     4031.16
 NUMERICALLY INTEGRATED DENSITY     66.0004652715     66.0004652318
 TTTTTTTTTTTTTTTTTTTTTTTTTTTTTT NUMDFT      TELAPSE     4037.78 TCPU     4033.40
 CYC   7 ETOT(AU) -9.203199333347E+02 DETOT -1.77E-02 tst  2.48E-05 PX  1.49E-02
 CYCLE  7 WAVE FUNCTION SAVED IN FORTRAN UNIT 79
 TTTTTTTTTTTTTTTTTTTTTTTTTTTTTT FDIK        TELAPSE     4038.53 TCPU     4034.01
 SPIN LOCKING: NO ENERGY GAP COMPUTED
 TTTTTTTTTTTTTTTTTTTTTTTTTTTTTT PDIG        TELAPSE     4038.72 TCPU     4034.20
 CHARGE NORMALIZATION FACTOR   1.00000000
 TOTAL ATOMIC CHARGES:
   0.1689921   0.1689921   0.1689921   0.1689921  18.0914809  18.0915056
  18.0914982  18.0914815   7.3697581   7.3697581   7.3697589   7.3697589
   7.3697588   7.3697588   7.3697570   7.3697570
 SUMMED SPIN DENSITY           0.00000000
 TOTAL ATOMIC SPINS  :
  -0.0000021  -0.0000021  -0.0000021  -0.0000021   0.4891953  -0.4892078
  -0.4892116   0.4892032   0.0000024   0.0000024   0.0000049   0.0000049
   0.0000054   0.0000054   0.0000020   0.0000020
 TTTTTTTTTTTTTTTTTTTTTTTTTTTTTT MOQGAD      TELAPSE     4038.75 TCPU     4034.23
 TTTTTTTTTTTTTTTTTTTTTTTTTTTTTT SHELLXN     TELAPSE     4469.45 TCPU     4464.86
 TTTTTTTTTTTTTTTTTTTTTTTTTTTTTT MONMO3      TELAPSE     4540.19 TCPU     4535.60
 NUMERICALLY INTEGRATED DENSITY     66.0004676184     66.0004675768
 TTTTTTTTTTTTTTTTTTTTTTTTTTTTTT NUMDFT      TELAPSE     4542.41 TCPU     4537.83
 CYC   8 ETOT(AU) -9.203302380079E+02 DETOT -1.03E-02 tst  1.49E-05 PX  1.08E-02
 CYCLE  8 WAVE FUNCTION SAVED IN FORTRAN UNIT 79
 TTTTTTTTTTTTTTTTTTTTTTTTTTTTTT FDIK        TELAPSE     4543.07 TCPU     4538.22
 SPIN LOCKING: NO ENERGY GAP COMPUTED
 TTTTTTTTTTTTTTTTTTTTTTTTTTTTTT PDIG        TELAPSE     4543.26 TCPU     4538.41
 CHARGE NORMALIZATION FACTOR   1.00000000
 TOTAL ATOMIC CHARGES:
   0.1704418   0.1704418   0.1704418   0.1704418  18.0919687  18.0919761
  18.0919810  18.0919742   7.3687908   7.3687908   7.3687899   7.3687899
   7.3687951   7.3687951   7.3687907   7.3687907
 SUMMED SPIN DENSITY           0.00000000
 TOTAL ATOMIC SPINS  :
  -0.0000006  -0.0000006  -0.0000006  -0.0000006   0.4913929  -0.4913957
  -0.4913955   0.4913951   0.0000016   0.0000016   0.0000006   0.0000006
   0.0000016   0.0000016  -0.0000009  -0.0000009
 TTTTTTTTTTTTTTTTTTTTTTTTTTTTTT MOQGAD      TELAPSE     4543.29 TCPU     4538.43
 TTTTTTTTTTTTTTTTTTTTTTTTTTTTTT SHELLXN     TELAPSE     4973.92 TCPU     4968.98
 TTTTTTTTTTTTTTTTTTTTTTTTTTTTTT MONMO3      TELAPSE     5044.53 TCPU     5039.58
 NUMERICALLY INTEGRATED DENSITY     66.0004693011     66.0004692605
 TTTTTTTTTTTTTTTTTTTTTTTTTTTTTT NUMDFT      TELAPSE     5046.77 TCPU     5041.82
 CYC   9 ETOT(AU) -9.203365392343E+02 DETOT -6.30E-03 tst  9.17E-06 PX  7.83E-03
 CYCLE  9 WAVE FUNCTION SAVED IN FORTRAN UNIT 79
 TTTTTTTTTTTTTTTTTTTTTTTTTTTTTT FDIK        TELAPSE     5047.54 TCPU     5042.44
 SPIN LOCKING: NO ENERGY GAP COMPUTED
 TTTTTTTTTTTTTTTTTTTTTTTTTTTTTT PDIG        TELAPSE     5047.73 TCPU     5042.63
 CHARGE NORMALIZATION FACTOR   1.00000000
 TOTAL ATOMIC CHARGES:
   0.1714483   0.1714483   0.1714483   0.1714483  18.0907817  18.0907937
  18.0907943  18.0907842   7.3688816   7.3688816   7.3688832   7.3688832
   7.3688813   7.3688813   7.3688803   7.3688803
 SUMMED SPIN DENSITY           0.00000000
 TOTAL ATOMIC SPINS  :
  -0.0000009  -0.0000009  -0.0000009  -0.0000009   0.4941756  -0.4941782
  -0.4941799   0.4941760   0.0000012   0.0000012   0.0000005   0.0000005
   0.0000012   0.0000012   0.0000022   0.0000022
 TTTTTTTTTTTTTTTTTTTTTTTTTTTTTT MOQGAD      TELAPSE     5047.76 TCPU     5042.66
 TTTTTTTTTTTTTTTTTTTTTTTTTTTTTT SHELLXN     TELAPSE     5478.36 TCPU     5473.34
 TTTTTTTTTTTTTTTTTTTTTTTTTTTTTT MONMO3      TELAPSE     5548.81 TCPU     5543.80
 NUMERICALLY INTEGRATED DENSITY     66.0004705200     66.0004704787
 TTTTTTTTTTTTTTTTTTTTTTTTTTTTTT NUMDFT      TELAPSE     5551.03 TCPU     5546.02
 CYC  10 ETOT(AU) -9.203405813015E+02 DETOT -4.04E-03 tst  8.41E-06 PX  7.30E-03
 CYCLE 10 WAVE FUNCTION SAVED IN FORTRAN UNIT 79
 TTTTTTTTTTTTTTTTTTTTTTTTTTTTTT FDIK        TELAPSE     5551.85 TCPU     5546.47
 SPIN LOCKING: NO ENERGY GAP COMPUTED
 TTTTTTTTTTTTTTTTTTTTTTTTTTTTTT PDIG        TELAPSE     5552.04 TCPU     5546.66
 CHARGE NORMALIZATION FACTOR   1.00000000
 TOTAL ATOMIC CHARGES:
   0.1721229   0.1721229   0.1721229   0.1721229  18.0886475  18.0886655
  18.0886650  18.0886499   7.3696094   7.3696094   7.3696099   7.3696099
   7.3696097   7.3696097   7.3696113   7.3696113
 SUMMED SPIN DENSITY           0.00000000
 TOTAL ATOMIC SPINS  :
  -0.0000010  -0.0000010  -0.0000010  -0.0000010   0.4972315  -0.4972355
  -0.4972353   0.4972341   0.0000015   0.0000015   0.0000002   0.0000002
   0.0000008   0.0000008   0.0000021   0.0000021
 TTTTTTTTTTTTTTTTTTTTTTTTTTTTTT MOQGAD      TELAPSE     5552.07 TCPU     5546.69
 TTTTTTTTTTTTTTTTTTTTTTTTTTTTTT SHELLXN     TELAPSE     5982.62 TCPU     5977.31
 TTTTTTTTTTTTTTTTTTTTTTTTTTTTTT MONMO3      TELAPSE     6053.19 TCPU     6047.89
 NUMERICALLY INTEGRATED DENSITY     66.0004714123     66.0004713715
 TTTTTTTTTTTTTTTTTTTTTTTTTTTTTT NUMDFT      TELAPSE     6055.42 TCPU     6050.12
 CYC  11 ETOT(AU) -9.203433114049E+02 DETOT -2.73E-03 tst  8.30E-06 PX  7.20E-03
 CYCLE 11 WAVE FUNCTION SAVED IN FORTRAN UNIT 79
 TTTTTTTTTTTTTTTTTTTTTTTTTTTTTT FDIK        TELAPSE     6056.03 TCPU     6050.70
 SPIN LOCKING: NO ENERGY GAP COMPUTED
 TTTTTTTTTTTTTTTTTTTTTTTTTTTTTT PDIG        TELAPSE     6056.21 TCPU     6050.88
 CHARGE NORMALIZATION FACTOR   1.00000000
 TOTAL ATOMIC CHARGES:
   0.1725558   0.1725558   0.1725558   0.1725558  18.0860245  18.0860400
  18.0860408  18.0860256   7.3707058   7.3707058   7.3707065   7.3707065
   7.3707059   7.3707059   7.3707047   7.3707047
 SUMMED SPIN DENSITY           0.00000000
 TOTAL ATOMIC SPINS  :
  -0.0000004  -0.0000004  -0.0000004  -0.0000004   0.5003679  -0.5003700
  -0.5003675   0.5003669   0.0000010   0.0000010   0.0000007   0.0000007
   0.0000001   0.0000001   0.0000004   0.0000004
 TTTTTTTTTTTTTTTTTTTTTTTTTTTTTT MOQGAD      TELAPSE     6056.24 TCPU     6050.91
 TTTTTTTTTTTTTTTTTTTTTTTTTTTTTT SHELLXN     TELAPSE     6488.68 TCPU     6481.75
 TTTTTTTTTTTTTTTTTTTTTTTTTTTTTT MONMO3      TELAPSE     6557.19 TCPU     6550.27
 NUMERICALLY INTEGRATED DENSITY     66.0004720719     66.0004720306
 TTTTTTTTTTTTTTTTTTTTTTTTTTTTTT NUMDFT      TELAPSE     6559.41 TCPU     6552.49
 CYC  12 ETOT(AU) -9.203452513446E+02 DETOT -1.94E-03 tst  7.91E-06 PX  6.95E-03
 CYCLE 12 WAVE FUNCTION SAVED IN FORTRAN UNIT 79
 TTTTTTTTTTTTTTTTTTTTTTTTTTTTTT FDIK        TELAPSE     6560.23 TCPU     6552.83
 SPIN LOCKING: NO ENERGY GAP COMPUTED
 TTTTTTTTTTTTTTTTTTTTTTTTTTTTTT PDIG        TELAPSE     6560.41 TCPU     6553.02
 CHARGE NORMALIZATION FACTOR   1.00000000
 TOTAL ATOMIC CHARGES:
   0.1728144   0.1728144   0.1728144   0.1728144  18.0831661  18.0831830
  18.0831815  18.0831668   7.3720057   7.3720057   7.3720051   7.3720051
   7.3720049   7.3720049   7.3720068   7.3720068
 SUMMED SPIN DENSITY           0.00000000
 TOTAL ATOMIC SPINS  :
  -0.0000006  -0.0000006  -0.0000006  -0.0000006   0.5034879  -0.5034941
  -0.5034931   0.5034894   0.0000013   0.0000013   0.0000002   0.0000002
   0.0000021   0.0000021   0.0000026   0.0000026
 TTTTTTTTTTTTTTTTTTTTTTTTTTTTTT MOQGAD      TELAPSE     6560.44 TCPU     6553.05
 TTTTTTTTTTTTTTTTTTTTTTTTTTTTTT SHELLXN     TELAPSE     6992.70 TCPU     6984.08
 TTTTTTTTTTTTTTTTTTTTTTTTTTTTTT MONMO3      TELAPSE     7061.52 TCPU     7052.88
 NUMERICALLY INTEGRATED DENSITY     66.0004725620     66.0004725210
 TTTTTTTTTTTTTTTTTTTTTTTTTTTTTT NUMDFT      TELAPSE     7064.49 TCPU     7055.26
 CYC  13 ETOT(AU) -9.203466955479E+02 DETOT -1.44E-03 tst  7.37E-06 PX  6.63E-03
 CYCLE 13 WAVE FUNCTION SAVED IN FORTRAN UNIT 79
 TTTTTTTTTTTTTTTTTTTTTTTTTTTTTT FDIK        TELAPSE     7065.40 TCPU     7055.98
 SPIN LOCKING: NO ENERGY GAP COMPUTED
 TTTTTTTTTTTTTTTTTTTTTTTTTTTTTT PDIG        TELAPSE     7066.01 TCPU     7056.57
 CHARGE NORMALIZATION FACTOR   1.00000000
 TOTAL ATOMIC CHARGES:
   0.1729476   0.1729476   0.1729476   0.1729476  18.0802599  18.0802742
  18.0802740  18.0802605   7.3733930   7.3733930   7.3733924   7.3733924
   7.3733927   7.3733927   7.3733924   7.3733924
 SUMMED SPIN DENSITY          -0.00000000
 TOTAL ATOMIC SPINS  :
  -0.0000002  -0.0000002  -0.0000002  -0.0000002   0.5065346  -0.5065382
  -0.5065366   0.5065352   0.0000005   0.0000005   0.0000003   0.0000003
   0.0000011   0.0000011   0.0000011   0.0000011
 TTTTTTTTTTTTTTTTTTTTTTTTTTTTTT MOQGAD      TELAPSE     7066.14 TCPU     7056.70
 TTTTTTTTTTTTTTTTTTTTTTTTTTTTTT SHELLXN     TELAPSE     7497.52 TCPU     7487.31
 TTTTTTTTTTTTTTTTTTTTTTTTTTTTTT MONMO3      TELAPSE     7567.23 TCPU     7557.01
 NUMERICALLY INTEGRATED DENSITY     66.0004729295     66.0004728885
 TTTTTTTTTTTTTTTTTTTTTTTTTTTTTT NUMDFT      TELAPSE     7569.59 TCPU     7559.37
 CYC  14 ETOT(AU) -9.203478136741E+02 DETOT -1.12E-03 tst  6.76E-06 PX  6.27E-03
 CYCLE 14 WAVE FUNCTION SAVED IN FORTRAN UNIT 79
 TTTTTTTTTTTTTTTTTTTTTTTTTTTTTT FDIK        TELAPSE     7570.07 TCPU     7559.78
 SPIN LOCKING: NO ENERGY GAP COMPUTED
 TTTTTTTTTTTTTTTTTTTTTTTTTTTTTT PDIG        TELAPSE     7570.25 TCPU     7559.96
 CHARGE NORMALIZATION FACTOR   1.00000000
 TOTAL ATOMIC CHARGES:
   0.1729929   0.1729929   0.1729929   0.1729929  18.0774101  18.0774236
  18.0774268  18.0774118   7.3747945   7.3747945   7.3747946   7.3747946
   7.3747947   7.3747947   7.3747942   7.3747942
 SUMMED SPIN DENSITY           0.00000000
 TOTAL ATOMIC SPINS  :
  -0.0000005  -0.0000005  -0.0000005  -0.0000005   0.5094715  -0.5094737
  -0.5094725   0.5094729   0.0000016   0.0000016  -0.0000005  -0.0000005
   0.0000007   0.0000007   0.0000002   0.0000002
 TTTTTTTTTTTTTTTTTTTTTTTTTTTTTT MOQGAD      TELAPSE     7570.28 TCPU     7559.99
 TTTTTTTTTTTTTTTTTTTTTTTTTTTTTT SHELLXN     TELAPSE     8001.02 TCPU     7990.62
 TTTTTTTTTTTTTTTTTTTTTTTTTTTTTT MONMO3      TELAPSE     8071.60 TCPU     8061.19
 NUMERICALLY INTEGRATED DENSITY     66.0004732053     66.0004731646
 TTTTTTTTTTTTTTTTTTTTTTTTTTTTTT NUMDFT      TELAPSE     8073.83 TCPU     8063.43
 CYC  15 ETOT(AU) -9.203487066875E+02 DETOT -8.93E-04 tst  6.14E-06 PX  5.91E-03
 CYCLE 15 WAVE FUNCTION SAVED IN FORTRAN UNIT 79
 MODIFIED BROYDEN: MIX%=  60 W0=  1.000000000000E-02 W=  5.946302738545E+00
 TTTTTTTTTTTTTTTTTTTTTTTTTTTTTT FDIK        TELAPSE     8074.51 TCPU     8064.08
 SPIN LOCKING: NO ENERGY GAP COMPUTED
 TTTTTTTTTTTTTTTTTTTTTTTTTTTTTT PDIG        TELAPSE     8074.70 TCPU     8064.27
 CHARGE NORMALIZATION FACTOR   1.00000000
 TOTAL ATOMIC CHARGES:
   0.1727938   0.1727938   0.1727938   0.1727938  18.0619710  18.0619803
  18.0619881  18.0619741   7.3826168   7.3826168   7.3826135   7.3826135
   7.3826101   7.3826101   7.3826152   7.3826152
 SUMMED SPIN DENSITY           0.00000000
 TOTAL ATOMIC SPINS  :
   0.0000007   0.0000007   0.0000007   0.0000007   0.5247315  -0.5247401
  -0.5247428   0.5247289  -0.0000006  -0.0000006   0.0000107   0.0000107
   0.0000035   0.0000035  -0.0000037  -0.0000037
 TTTTTTTTTTTTTTTTTTTTTTTTTTTTTT MOQGAD      TELAPSE     8074.73 TCPU     8064.29
 TTTTTTTTTTTTTTTTTTTTTTTTTTTTTT SHELLXN     TELAPSE     8505.41 TCPU     8495.06
 TTTTTTTTTTTTTTTTTTTTTTTTTTTTTT MONMO3      TELAPSE     8575.98 TCPU     8565.65
 NUMERICALLY INTEGRATED DENSITY     66.0004742259     66.0004741851
 TTTTTTTTTTTTTTTTTTTTTTTTTTTTTT NUMDFT      TELAPSE     8578.21 TCPU     8567.88
 CYC  16 ETOT(AU) -9.203519143481E+02 DETOT -3.21E-03 tst  1.81E-04 PX  3.06E-02
 CYCLE 16 WAVE FUNCTION SAVED IN FORTRAN UNIT 79
 MODIFIED BROYDEN: MIX%=  60 W0=  1.000000000000E-02 W=  1.522558275512E+01
 TTTTTTTTTTTTTTTTTTTTTTTTTTTTTT FDIK        TELAPSE     8579.48 TCPU     8568.39
 SPIN LOCKING: NO ENERGY GAP COMPUTED
 TTTTTTTTTTTTTTTTTTTTTTTTTTTTTT PDIG        TELAPSE     8579.66 TCPU     8568.57
 CHARGE NORMALIZATION FACTOR   1.00000000
 TOTAL ATOMIC CHARGES:
   0.1733113   0.1733113   0.1733113   0.1733113  18.0654027  18.0654161
  18.0654188  18.0654035   7.3806401   7.3806401   7.3806386   7.3806386
   7.3806391   7.3806391   7.3806390   7.3806390
 SUMMED SPIN DENSITY           0.00000000
 TOTAL ATOMIC SPINS  :
  -0.0000001  -0.0000001  -0.0000001  -0.0000001   0.5205466  -0.5205515
  -0.5205499   0.5205468   0.0000018   0.0000018   0.0000005   0.0000005
   0.0000011   0.0000011   0.0000008   0.0000008
 TTTTTTTTTTTTTTTTTTTTTTTTTTTTTT MOQGAD      TELAPSE     8579.69 TCPU     8568.60
 TTTTTTTTTTTTTTTTTTTTTTTTTTTTTT SHELLXN     TELAPSE     9010.43 TCPU     8999.43
 TTTTTTTTTTTTTTTTTTTTTTTTTTTTTT MONMO3      TELAPSE     9081.00 TCPU     9070.01
 NUMERICALLY INTEGRATED DENSITY     66.0004743982     66.0004743575
 TTTTTTTTTTTTTTTTTTTTTTTTTTTTTT NUMDFT      TELAPSE     9083.24 TCPU     9072.24
 CYC  17 ETOT(AU) -9.203514326551E+02 DETOT  4.82E-04 tst  9.04E-06 PX  6.82E-03
 CYCLE 17 WAVE FUNCTION SAVED IN FORTRAN UNIT 79
 MODIFIED BROYDEN: MIX%=  60 W0=  1.000000000000E-02 W=  1.365898925751E+01
 TTTTTTTTTTTTTTTTTTTTTTTTTTTTTT FDIK        TELAPSE     9083.93 TCPU     9072.69
 SPIN LOCKING: NO ENERGY GAP COMPUTED
 TTTTTTTTTTTTTTTTTTTTTTTTTTTTTT PDIG        TELAPSE     9084.13 TCPU     9072.84
 CHARGE NORMALIZATION FACTOR   1.00000000
 TOTAL ATOMIC CHARGES:
   0.1733282   0.1733282   0.1733282   0.1733282  18.0653531  18.0653662
  18.0653683  18.0653536   7.3806560   7.3806560   7.3806554   7.3806554
   7.3806561   7.3806561   7.3806555   7.3806555
 SUMMED SPIN DENSITY           0.00000000
 TOTAL ATOMIC SPINS  :
  -0.0000004  -0.0000004  -0.0000004  -0.0000004   0.5210890  -0.5210925
  -0.5210923   0.5210891   0.0000011   0.0000011   0.0000009   0.0000009
   0.0000010   0.0000010   0.0000010   0.0000010
 TTTTTTTTTTTTTTTTTTTTTTTTTTTTTT MOQGAD      TELAPSE     9084.16 TCPU     9072.87
 TTTTTTTTTTTTTTTTTTTTTTTTTTTTTT SHELLXN     TELAPSE     9514.92 TCPU     9503.65
 TTTTTTTTTTTTTTTTTTTTTTTTTTTTTT MONMO3      TELAPSE     9585.62 TCPU     9574.36
 NUMERICALLY INTEGRATED DENSITY     66.0004744231     66.0004743825
 TTTTTTTTTTTTTTTTTTTTTTTTTTTTTT NUMDFT      TELAPSE     9587.85 TCPU     9576.59
 CYC  18 ETOT(AU) -9.203514862617E+02 DETOT -5.36E-05 tst  1.43E-07 PX  8.57E-04
 CYCLE 18 WAVE FUNCTION SAVED IN FORTRAN UNIT 79
 MODIFIED BROYDEN: MIX%=  60 W0=  1.000000000000E-02 W=  1.390293003335E+01
 TTTTTTTTTTTTTTTTTTTTTTTTTTTTTT FDIK        TELAPSE     9588.49 TCPU     9577.13
 SPIN LOCKING: NO ENERGY GAP COMPUTED
 TTTTTTTTTTTTTTTTTTTTTTTTTTTTTT PDIG        TELAPSE     9588.68 TCPU     9577.32
 CHARGE NORMALIZATION FACTOR   1.00000000
 TOTAL ATOMIC CHARGES:
   0.1732916   0.1732916   0.1732916   0.1732916  18.0649002  18.0649151
  18.0649176  18.0649011   7.3809003   7.3809003   7.3808995   7.3808995
   7.3809002   7.3809002   7.3808997   7.3808997
 SUMMED SPIN DENSITY          -0.00000000
 TOTAL ATOMIC SPINS  :
  -0.0000003  -0.0000003  -0.0000003  -0.0000003   0.5217907  -0.5217933
  -0.5217930   0.5217906   0.0000009   0.0000009   0.0000008   0.0000008
   0.0000008   0.0000008   0.0000007   0.0000007
 TTTTTTTTTTTTTTTTTTTTTTTTTTTTTT MOQGAD      TELAPSE     9588.71 TCPU     9577.35
 TTTTTTTTTTTTTTTTTTTTTTTTTTTTTT SHELLXN     TELAPSE    10019.54 TCPU    10008.06
 TTTTTTTTTTTTTTTTTTTTTTTTTTTTTT MONMO3      TELAPSE    10090.67 TCPU    10079.17
 NUMERICALLY INTEGRATED DENSITY     66.0004744088     66.0004743682
 TTTTTTTTTTTTTTTTTTTTTTTTTTTTTT NUMDFT      TELAPSE    10092.91 TCPU    10081.41
 CYC  19 ETOT(AU) -9.203515536111E+02 DETOT -6.73E-05 tst  2.04E-07 PX  1.03E-03
 CYCLE 19 WAVE FUNCTION SAVED IN FORTRAN UNIT 79
 MODIFIED BROYDEN: MIX%=  60 W0=  1.000000000000E-02 W=  1.392963376269E+01
 TTTTTTTTTTTTTTTTTTTTTTTTTTTTTT FDIK        TELAPSE    10093.68 TCPU    10081.85
 SPIN LOCKING: NO ENERGY GAP COMPUTED
 TTTTTTTTTTTTTTTTTTTTTTTTTTTTTT PDIG        TELAPSE    10093.86 TCPU    10082.04
 CHARGE NORMALIZATION FACTOR   1.00000000
 TOTAL ATOMIC CHARGES:
   0.1733319   0.1733319   0.1733319   0.1733319  18.0653077  18.0653236
  18.0653258  18.0653084   7.3806762   7.3806762   7.3806754   7.3806754
   7.3806762   7.3806762   7.3806756   7.3806756
 SUMMED SPIN DENSITY          -0.00000000
 TOTAL ATOMIC SPINS  :
  -0.0000004  -0.0000004  -0.0000004  -0.0000004   0.5210303  -0.5210324
  -0.5210322   0.5210300   0.0000008   0.0000008   0.0000007   0.0000007
   0.0000008   0.0000008   0.0000006   0.0000006
 TTTTTTTTTTTTTTTTTTTTTTTTTTTTTT MOQGAD      TELAPSE    10093.89 TCPU    10082.06
 TTTTTTTTTTTTTTTTTTTTTTTTTTTTTT SHELLXN     TELAPSE    10525.22 TCPU    10512.87
 TTTTTTTTTTTTTTTTTTTTTTTTTTTTTT MONMO3      TELAPSE    10595.16 TCPU    10582.76
 NUMERICALLY INTEGRATED DENSITY     66.0004744168     66.0004743762
 TTTTTTTTTTTTTTTTTTTTTTTTTTTTTT NUMDFT      TELAPSE    10597.39 TCPU    10584.98
 CYC  20 ETOT(AU) -9.203514755828E+02 DETOT  7.80E-05 tst  2.53E-07 PX  1.15E-03
 CYCLE 20 WAVE FUNCTION SAVED IN FORTRAN UNIT 79
 MODIFIED BROYDEN: MIX%=  60 W0=  1.000000000000E-02 W=  1.368562144418E+01
 TTTTTTTTTTTTTTTTTTTTTTTTTTTTTT FDIK        TELAPSE    10598.19 TCPU    10585.72
 SPIN LOCKING: NO ENERGY GAP COMPUTED
 TTTTTTTTTTTTTTTTTTTTTTTTTTTTTT PDIG        TELAPSE    10598.38 TCPU    10585.91
 CHARGE NORMALIZATION FACTOR   1.00000000
 TOTAL ATOMIC CHARGES:
   0.1726264   0.1726264   0.1726264   0.1726264  18.0580677  18.0581273
  18.0581186  18.0580662   7.3846400   7.3846400   7.3846413   7.3846413
   7.3846366   7.3846366   7.3846395   7.3846395
 SUMMED SPIN DENSITY          -0.00000000
 TOTAL ATOMIC SPINS  :
  -0.0000003  -0.0000003  -0.0000003  -0.0000003   0.5345179  -0.5345080
  -0.5345132   0.5345225  -0.0000026  -0.0000026  -0.0000009  -0.0000009
  -0.0000027  -0.0000027  -0.0000028  -0.0000028
 TTTTTTTTTTTTTTTTTTTTTTTTTTTTTT MOQGAD      TELAPSE    10598.41 TCPU    10585.94
 TTTTTTTTTTTTTTTTTTTTTTTTTTTTTT SHELLXN     TELAPSE    11029.12 TCPU    11016.72
 TTTTTTTTTTTTTTTTTTTTTTTTTTTTTT MONMO3      TELAPSE    11102.85 TCPU    11090.46
 NUMERICALLY INTEGRATED DENSITY     66.0004742658     66.0004742256
 TTTTTTTTTTTTTTTTTTTTTTTTTTTTTT NUMDFT      TELAPSE    11105.09 TCPU    11092.70
 CYC  21 ETOT(AU) -9.203526686300E+02 DETOT -1.19E-03 tst  8.46E-05 PX  2.05E-02
 CYCLE 21 WAVE FUNCTION SAVED IN FORTRAN UNIT 79
 MODIFIED BROYDEN: MIX%=  60 W0=  1.000000000000E-02 W=  1.924125140638E+01
 TTTTTTTTTTTTTTTTTTTTTTTTTTTTTT FDIK        TELAPSE    11105.85 TCPU    11093.19
 SPIN LOCKING: NO ENERGY GAP COMPUTED
 TTTTTTTTTTTTTTTTTTTTTTTTTTTTTT PDIG        TELAPSE    11106.04 TCPU    11093.39
 CHARGE NORMALIZATION FACTOR   1.00000000
 TOTAL ATOMIC CHARGES:
   0.1721084   0.1721084   0.1721084   0.1721084  18.0529203  18.0528248
  18.0528330  18.0529172   7.3875087   7.3875087   7.3875086   7.3875086
   7.3875091   7.3875091   7.3875091   7.3875091
 SUMMED SPIN DENSITY          -0.00000000
 TOTAL ATOMIC SPINS  :
  -0.0000004  -0.0000004  -0.0000004  -0.0000004   0.5438675  -0.5439149
  -0.5439137   0.5438640   0.0000124   0.0000124   0.0000134   0.0000134
   0.0000114   0.0000114   0.0000122   0.0000122
 TTTTTTTTTTTTTTTTTTTTTTTTTTTTTT MOQGAD      TELAPSE    11106.07 TCPU    11093.42
 TTTTTTTTTTTTTTTTTTTTTTTTTTTTTT SHELLXN     TELAPSE    11536.85 TCPU    11524.25
 TTTTTTTTTTTTTTTTTTTTTTTTTTTTTT MONMO3      TELAPSE    11607.26 TCPU    11594.66
 NUMERICALLY INTEGRATED DENSITY     66.0004741615     66.0004741228
 TTTTTTTTTTTTTTTTTTTTTTTTTTTTTT NUMDFT      TELAPSE    11609.48 TCPU    11596.89
 CYC  22 ETOT(AU) -9.203532657129E+02 DETOT -5.97E-04 tst  4.50E-05 PX  1.45E-02
 CYCLE 22 WAVE FUNCTION SAVED IN FORTRAN UNIT 79
 MODIFIED BROYDEN: MIX%=  60 W0=  1.000000000000E-02 W=  2.843753032365E+01
 TTTTTTTTTTTTTTTTTTTTTTTTTTTTTT FDIK        TELAPSE    11610.05 TCPU    11597.22
 SPIN LOCKING: NO ENERGY GAP COMPUTED
 TTTTTTTTTTTTTTTTTTTTTTTTTTTTTT PDIG        TELAPSE    11610.24 TCPU    11597.41
 CHARGE NORMALIZATION FACTOR   1.00000000
 TOTAL ATOMIC CHARGES:
   0.1706879   0.1706879   0.1706879   0.1706879  18.0382659  18.0408408
  18.0407083  18.0382200   7.3949023   7.3949023   7.3949082   7.3949082
   7.3948869   7.3948869   7.3949095   7.3949095
 SUMMED SPIN DENSITY          -0.00000000
 TOTAL ATOMIC SPINS  :
  -0.0000034  -0.0000034  -0.0000034  -0.0000034   0.5633902  -0.5624009
  -0.5624702   0.5634160  -0.0002520  -0.0002520  -0.0002410  -0.0002410
  -0.0002364  -0.0002364  -0.0002313  -0.0002313
 TTTTTTTTTTTTTTTTTTTTTTTTTTTTTT MOQGAD      TELAPSE    11610.27 TCPU    11597.44
 TTTTTTTTTTTTTTTTTTTTTTTTTTTTTT SHELLXN     TELAPSE    12040.88 TCPU    12028.14
 TTTTTTTTTTTTTTTTTTTTTTTTTTTTTT MONMO3      TELAPSE    12113.05 TCPU    12100.33
 NUMERICALLY INTEGRATED DENSITY     66.0004737115     66.0004736351
 TTTTTTTTTTTTTTTTTTTTTTTTTTTTTT NUMDFT      TELAPSE    12115.29 TCPU    12102.56
 CYC  23 ETOT(AU) -9.203537396115E+02 DETOT -4.74E-04 tst  2.18E-04 PX  3.00E-02
 CYCLE 23 WAVE FUNCTION SAVED IN FORTRAN UNIT 79
 MODIFIED BROYDEN: MIX%=  60 W0=  1.000000000000E-02 W=  4.384418221507E+01
 TTTTTTTTTTTTTTTTTTTTTTTTTTTTTT FDIK        TELAPSE    12116.05 TCPU    12103.03
 SPIN LOCKING: NO ENERGY GAP COMPUTED
 TTTTTTTTTTTTTTTTTTTTTTTTTTTTTT PDIG        TELAPSE    12116.23 TCPU    12103.22
 CHARGE NORMALIZATION FACTOR   1.00000000
 TOTAL ATOMIC CHARGES:
   0.1708850   0.1708850   0.1708850   0.1708850  18.0418379  18.0412536
  18.0411873  18.0418163   7.3937960   7.3937960   7.3937973   7.3937973
   7.3937893   7.3937893   7.3937999   7.3937999
 SUMMED SPIN DENSITY          -0.00000000
 TOTAL ATOMIC SPINS  :
   0.0000005   0.0000005   0.0000005   0.0000005   0.5620017  -0.5622340
  -0.5622733   0.5620135   0.0000564   0.0000564   0.0000637   0.0000637
   0.0000598   0.0000598   0.0000651   0.0000651
 TTTTTTTTTTTTTTTTTTTTTTTTTTTTTT MOQGAD      TELAPSE    12116.26 TCPU    12103.25
 TTTTTTTTTTTTTTTTTTTTTTTTTTTTTT SHELLXN     TELAPSE    12547.85 TCPU    12534.05
 TTTTTTTTTTTTTTTTTTTTTTTTTTTTTT MONMO3      TELAPSE    12617.80 TCPU    12603.99
 NUMERICALLY INTEGRATED DENSITY     66.0004738869     66.0004738558
 TTTTTTTTTTTTTTTTTTTTTTTTTTTTTT NUMDFT      TELAPSE    12620.03 TCPU    12606.22
 CYC  24 ETOT(AU) -9.203537581281E+02 DETOT -1.85E-05 tst  7.95E-07 PX  1.91E-03
 CYCLE 24 WAVE FUNCTION SAVED IN FORTRAN UNIT 79
 MODIFIED BROYDEN: MIX%=  60 W0=  1.000000000000E-02 W=  2.061879073735E+02
 TTTTTTTTTTTTTTTTTTTTTTTTTTTTTT FDIK        TELAPSE    12620.91 TCPU    12606.92
 SPIN LOCKING: NO ENERGY GAP COMPUTED
 TTTTTTTTTTTTTTTTTTTTTTTTTTTTTT PDIG        TELAPSE    12621.10 TCPU    12607.10
 CHARGE NORMALIZATION FACTOR   1.00000000
 TOTAL ATOMIC CHARGES:
   0.1709330   0.1709330   0.1709330   0.1709330  18.0419384  18.0419878
  18.0422307  18.0420108   7.3935170   7.3935170   7.3935002   7.3935002
   7.3935341   7.3935341   7.3934989   7.3934989
 SUMMED SPIN DENSITY          -0.00000000
 TOTAL ATOMIC SPINS  :
  -0.0000004  -0.0000004  -0.0000004  -0.0000004   0.5615978  -0.5615948
  -0.5614822   0.5615603   0.0000038   0.0000038  -0.0000172  -0.0000172
  -0.0000029  -0.0000029  -0.0000234  -0.0000234
 TTTTTTTTTTTTTTTTTTTTTTTTTTTTTT MOQGAD      TELAPSE    12621.12 TCPU    12607.13
 TTTTTTTTTTTTTTTTTTTTTTTTTTTTTT SHELLXN     TELAPSE    13051.83 TCPU    13037.88
 TTTTTTTTTTTTTTTTTTTTTTTTTTTTTT MONMO3      TELAPSE    13122.61 TCPU    13108.65
 NUMERICALLY INTEGRATED DENSITY     66.0004739369     66.0004738959
 TTTTTTTTTTTTTTTTTTTTTTTTTTTTTT NUMDFT      TELAPSE    13124.84 TCPU    13110.88
 CYC  25 ETOT(AU) -9.203537580379E+02 DETOT  9.02E-08 tst  2.16E-07 PX  8.70E-04
 CYCLE 25 WAVE FUNCTION SAVED IN FORTRAN UNIT 79
 MODIFIED BROYDEN: MIX%=  60 W0=  1.000000000000E-02 W=  1.875957178545E+02
 TTTTTTTTTTTTTTTTTTTTTTTTTTTTTT FDIK        TELAPSE    13125.50 TCPU    13111.48
 SPIN LOCKING: NO ENERGY GAP COMPUTED
 TTTTTTTTTTTTTTTTTTTTTTTTTTTTTT PDIG        TELAPSE    13125.69 TCPU    13111.67
 CHARGE NORMALIZATION FACTOR   1.00000000
 TOTAL ATOMIC CHARGES:
   0.1708980   0.1708980   0.1708980   0.1708980  18.0416834  18.0416989
  18.0416635  18.0416822   7.3937021   7.3937021   7.3937178   7.3937178
   7.3937128   7.3937128   7.3937072   7.3937072
 SUMMED SPIN DENSITY          -0.00000000
 TOTAL ATOMIC SPINS  :
  -0.0000001  -0.0000001  -0.0000001  -0.0000001   0.5611423  -0.5611390
  -0.5611649   0.5611415   0.0000013   0.0000013   0.0000047   0.0000047
   0.0000000   0.0000000   0.0000042   0.0000042
 TTTTTTTTTTTTTTTTTTTTTTTTTTTTTT MOQGAD      TELAPSE    13125.72 TCPU    13111.70
 TTTTTTTTTTTTTTTTTTTTTTTTTTTTTT SHELLXN     TELAPSE    13556.39 TCPU    13542.43
 TTTTTTTTTTTTTTTTTTTTTTTTTTTTTT MONMO3      TELAPSE    13627.81 TCPU    13613.87
 NUMERICALLY INTEGRATED DENSITY     66.0004738923     66.0004738531
 TTTTTTTTTTTTTTTTTTTTTTTTTTTTTT NUMDFT      TELAPSE    13630.04 TCPU    13616.09
 CYC  26 ETOT(AU) -9.203537591558E+02 DETOT -1.12E-06 tst  1.21E-07 PX  7.42E-04
 CYCLE 26 WAVE FUNCTION SAVED IN FORTRAN UNIT 79
 MODIFIED BROYDEN: MIX%=  60 W0=  1.000000000000E-02 W=  6.166693086503E+02
 TTTTTTTTTTTTTTTTTTTTTTTTTTTTTT FDIK        TELAPSE    13630.68 TCPU    13616.53
 SPIN LOCKING: NO ENERGY GAP COMPUTED
 TTTTTTTTTTTTTTTTTTTTTTTTTTTTTT PDIG        TELAPSE    13630.87 TCPU    13616.71
 CHARGE NORMALIZATION FACTOR   1.00000000
 TOTAL ATOMIC CHARGES:
   0.1708941   0.1708941   0.1708941   0.1708941  18.0416901  18.0416980
  18.0416856  18.0416757   7.3937104   7.3937104   7.3937098   7.3937098
   7.3937068   7.3937068   7.3937100   7.3937100
 SUMMED SPIN DENSITY          -0.00000000
 TOTAL ATOMIC SPINS  :
  -0.0000002  -0.0000002  -0.0000002  -0.0000002   0.5612997  -0.5613039
  -0.5613139   0.5613070   0.0000003   0.0000003   0.0000016   0.0000016
   0.0000012   0.0000012   0.0000028   0.0000028
 TTTTTTTTTTTTTTTTTTTTTTTTTTTTTT MOQGAD      TELAPSE    13630.90 TCPU    13616.74
 TTTTTTTTTTTTTTTTTTTTTTTTTTTTTT SHELLXN     TELAPSE    14062.21 TCPU    14047.44
 TTTTTTTTTTTTTTTTTTTTTTTTTTTTTT MONMO3      TELAPSE    14132.26 TCPU    14117.46
 NUMERICALLY INTEGRATED DENSITY     66.0004738908     66.0004738516
 TTTTTTTTTTTTTTTTTTTTTTTTTTTTTT NUMDFT      TELAPSE    14134.49 TCPU    14119.69
 CYC  27 ETOT(AU) -9.203537592371E+02 DETOT -8.13E-08 tst  1.19E-08 PX  2.29E-04
 CYCLE 27 WAVE FUNCTION SAVED IN FORTRAN UNIT 79
 MODIFIED BROYDEN: MIX%=  60 W0=  1.000000000000E-02 W=  2.235027184207E+03
 TTTTTTTTTTTTTTTTTTTTTTTTTTTTTT FDIK        TELAPSE    14135.31 TCPU    14120.10
 SPIN LOCKING: NO ENERGY GAP COMPUTED
 TTTTTTTTTTTTTTTTTTTTTTTTTTTTTT PDIG        TELAPSE    14135.49 TCPU    14120.29
 CHARGE NORMALIZATION FACTOR   1.00000000
 TOTAL ATOMIC CHARGES:
   0.1708949   0.1708949   0.1708949   0.1708949  18.0416433  18.0416689
  18.0416759  18.0416785   7.3937166   7.3937166   7.3937180   7.3937180
   7.3937230   7.3937230   7.3937193   7.3937193
 SUMMED SPIN DENSITY          -0.00000000
 TOTAL ATOMIC SPINS  :
  -0.0000003  -0.0000003  -0.0000003  -0.0000003   0.5614609  -0.5614584
  -0.5614559   0.5614439   0.0000032   0.0000032   0.0000026   0.0000026
   0.0000000   0.0000000  -0.0000004  -0.0000004
 TTTTTTTTTTTTTTTTTTTTTTTTTTTTTT MOQGAD      TELAPSE    14135.52 TCPU    14120.31
 TTTTTTTTTTTTTTTTTTTTTTTTTTTTTT SHELLXN     TELAPSE    14567.34 TCPU    14551.44
 TTTTTTTTTTTTTTTTTTTTTTTTTTTTTT MONMO3      TELAPSE    14636.84 TCPU    14620.94
 NUMERICALLY INTEGRATED DENSITY     66.0004738888     66.0004738497
 TTTTTTTTTTTTTTTTTTTTTTTTTTTTTT NUMDFT      TELAPSE    14639.06 TCPU    14623.16
 CYC  28 ETOT(AU) -9.203537592351E+02 DETOT  2.02E-09 tst  9.18E-09 PX  2.04E-04
 CYCLE 28 WAVE FUNCTION SAVED IN FORTRAN UNIT 79
 MODIFIED BROYDEN: MIX%=  60 W0=  1.000000000000E-02 W=  5.250740615195E+03
 TTTTTTTTTTTTTTTTTTTTTTTTTTTTTT FDIK        TELAPSE    14639.98 TCPU    14623.94
 SPIN LOCKING: NO ENERGY GAP COMPUTED
 TTTTTTTTTTTTTTTTTTTTTTTTTTTTTT PDIG        TELAPSE    14640.17 TCPU    14624.12
 CHARGE NORMALIZATION FACTOR   1.00000000
 TOTAL ATOMIC CHARGES:
   0.1708960   0.1708960   0.1708960   0.1708960  18.0416612  18.0416739
  18.0416763  18.0416585   7.3937185   7.3937185   7.3937183   7.3937183
   7.3937188   7.3937188   7.3937174   7.3937174
 SUMMED SPIN DENSITY          -0.00000000
 TOTAL ATOMIC SPINS  :
  -0.0000003  -0.0000003  -0.0000003  -0.0000003   0.5614836  -0.5614880
  -0.5614872   0.5614851   0.0000009   0.0000009   0.0000008   0.0000008
   0.0000012   0.0000012   0.0000010   0.0000010
 TTTTTTTTTTTTTTTTTTTTTTTTTTTTTT MOQGAD      TELAPSE    14640.19 TCPU    14624.15
 TTTTTTTTTTTTTTTTTTTTTTTTTTTTTT SHELLXN     TELAPSE    15070.80 TCPU    15054.84
 TTTTTTTTTTTTTTTTTTTTTTTTTTTTTT MONMO3      TELAPSE    15141.66 TCPU    15125.72
 NUMERICALLY INTEGRATED DENSITY     66.0004738892     66.0004738500
 TTTTTTTTTTTTTTTTTTTTTTTTTTTTTT NUMDFT      TELAPSE    15143.89 TCPU    15127.94
 CYC  29 ETOT(AU) -9.203537592293E+02 DETOT  5.78E-09 tst  4.30E-10 PX  4.88E-05
 CYCLE 29 WAVE FUNCTION SAVED IN FORTRAN UNIT 79
 MODIFIED BROYDEN: MIX%=  60 W0=  1.000000000000E-02 W=  7.571411740174E+03
 TTTTTTTTTTTTTTTTTTTTTTTTTTTTTT FDIK        TELAPSE    15144.79 TCPU    15128.39
 SPIN LOCKING: NO ENERGY GAP COMPUTED
 TTTTTTTTTTTTTTTTTTTTTTTTTTTTTT PDIG        TELAPSE    15144.98 TCPU    15128.58
 CHARGE NORMALIZATION FACTOR   1.00000000
 TOTAL ATOMIC CHARGES:
   0.1708998   0.1708998   0.1708998   0.1708998  18.0416961  18.0416816
  18.0416631  18.0416378   7.3937200   7.3937200   7.3937170   7.3937170
   7.3937086   7.3937086   7.3937155   7.3937155
 SUMMED SPIN DENSITY          -0.00000000
 TOTAL ATOMIC SPINS  :
  -0.0000003  -0.0000003  -0.0000003  -0.0000003   0.5614384  -0.5614535
  -0.5614645   0.5614664  -0.0000017  -0.0000017   0.0000002   0.0000002
   0.0000034   0.0000034   0.0000053   0.0000053
 TTTTTTTTTTTTTTTTTTTTTTTTTTTTTT MOQGAD      TELAPSE    15145.01 TCPU    15128.61
 TTTTTTTTTTTTTTTTTTTTTTTTTTTTTT SHELLXN     TELAPSE    15575.63 TCPU    15559.31
 TTTTTTTTTTTTTTTTTTTTTTTTTTTTTT MONMO3      TELAPSE    15646.23 TCPU    15629.92
 NUMERICALLY INTEGRATED DENSITY     66.0004738915     66.0004738524
 TTTTTTTTTTTTTTTTTTTTTTTTTTTTTT NUMDFT      TELAPSE    15648.47 TCPU    15632.16
 CYC  30 ETOT(AU) -9.203537592354E+02 DETOT -6.08E-09 tst  5.77E-10 PX  5.60E-05
 CYCLE 30 WAVE FUNCTION SAVED IN FORTRAN UNIT 79
 MODIFIED BROYDEN: MIX%=  60 W0=  1.000000000000E-02 W=  2.386423317165E+03
 TTTTTTTTTTTTTTTTTTTTTTTTTTTTTT FDIK        TELAPSE    15649.08 TCPU    15632.49
 SPIN LOCKING: NO ENERGY GAP COMPUTED
 TTTTTTTTTTTTTTTTTTTTTTTTTTTTTT PDIG        TELAPSE    15649.27 TCPU    15632.68
 CHARGE NORMALIZATION FACTOR   1.00000000
 TOTAL ATOMIC CHARGES:
   0.1708971   0.1708971   0.1708971   0.1708971  18.0416724  18.0416859
  18.0416992  18.0416708   7.3937117   7.3937117   7.3937093   7.3937093
   7.3937110   7.3937110   7.3937097   7.3937097
 SUMMED SPIN DENSITY          -0.00000000
 TOTAL ATOMIC SPINS  :
  -0.0000003  -0.0000003  -0.0000003  -0.0000003   0.5614454  -0.5614490
  -0.5614437   0.5614459   0.0000008   0.0000008  -0.0000002  -0.0000002
   0.0000009   0.0000009  -0.0000001  -0.0000001
 TTTTTTTTTTTTTTTTTTTTTTTTTTTTTT MOQGAD      TELAPSE    15649.30 TCPU    15632.71
 TTTTTTTTTTTTTTTTTTTTTTTTTTTTTT SHELLXN     TELAPSE    16080.65 TCPU    16063.67
 TTTTTTTTTTTTTTTTTTTTTTTTTTTTTT MONMO3      TELAPSE    16151.67 TCPU    16134.70
 NUMERICALLY INTEGRATED DENSITY     66.0004738914     66.0004738521
 TTTTTTTTTTTTTTTTTTTTTTTTTTTTTT NUMDFT      TELAPSE    16153.90 TCPU    16136.94
 CYC  31 ETOT(AU) -9.203537592356E+02 DETOT -2.10E-10 tst  9.81E-11 PX  2.91E-05
 CYCLE 31 WAVE FUNCTION SAVED IN FORTRAN UNIT 79
 MODIFIED BROYDEN: MIX%=  60 W0=  1.000000000000E-02 W=  7.120626648764E+03
 TTTTTTTTTTTTTTTTTTTTTTTTTTTTTT FDIK        TELAPSE    16154.64 TCPU    16137.48
 SPIN LOCKING: NO ENERGY GAP COMPUTED
 TTTTTTTTTTTTTTTTTTTTTTTTTTTTTT PDIG        TELAPSE    16154.82 TCPU    16137.67
 CHARGE NORMALIZATION FACTOR   1.00000000
 TOTAL ATOMIC CHARGES:
   0.1708962   0.1708962   0.1708962   0.1708962  18.0416694  18.0416800
  18.0416829  18.0416660   7.3937150   7.3937150   7.3937146   7.3937146
   7.3937150   7.3937150   7.3937139   7.3937139
 SUMMED SPIN DENSITY          -0.00000000
 TOTAL ATOMIC SPINS  :
  -0.0000003  -0.0000003  -0.0000003  -0.0000003   0.5614470  -0.5614517
  -0.5614510   0.5614485   0.0000010   0.0000010   0.0000008   0.0000008
   0.0000013   0.0000013   0.0000011   0.0000011
 TTTTTTTTTTTTTTTTTTTTTTTTTTTTTT MOQGAD      TELAPSE    16154.85 TCPU    16137.70
 TTTTTTTTTTTTTTTTTTTTTTTTTTTTTT SHELLXN     TELAPSE    16586.71 TCPU    16568.52
 TTTTTTTTTTTTTTTTTTTTTTTTTTTTTT MONMO3      TELAPSE    16656.25 TCPU    16638.07
 NUMERICALLY INTEGRATED DENSITY     66.0004738903     66.0004738511
 TTTTTTTTTTTTTTTTTTTTTTTTTTTTTT NUMDFT      TELAPSE    16658.47 TCPU    16640.30
 CYC  32 ETOT(AU) -9.203537592362E+02 DETOT -5.94E-10 tst  8.45E-12 PX  8.34E-06
 CYCLE 32 WAVE FUNCTION SAVED IN FORTRAN UNIT 79
 MODIFIED BROYDEN: MIX%=  60 W0=  1.000000000000E-02 W=  1.600442992470E+04
 TTTTTTTTTTTTTTTTTTTTTTTTTTTTTT FDIK        TELAPSE    16659.00 TCPU    16640.74
 SPIN LOCKING: NO ENERGY GAP COMPUTED
 TTTTTTTTTTTTTTTTTTTTTTTTTTTTTT PDIG        TELAPSE    16659.19 TCPU    16640.92
 CHARGE NORMALIZATION FACTOR   1.00000000
 TOTAL ATOMIC CHARGES:
   0.1708961   0.1708961   0.1708961   0.1708961  18.0416633  18.0416773
  18.0416799  18.0416627   7.3937170   7.3937170   7.3937162   7.3937162
   7.3937169   7.3937169   7.3937162   7.3937162
 SUMMED SPIN DENSITY          -0.00000000
 TOTAL ATOMIC SPINS  :
  -0.0000003  -0.0000003  -0.0000003  -0.0000003   0.5614498  -0.5614532
  -0.5614524   0.5614500   0.0000010   0.0000010   0.0000008   0.0000008
   0.0000010   0.0000010   0.0000008   0.0000008
 TTTTTTTTTTTTTTTTTTTTTTTTTTTTTT MOQGAD      TELAPSE    16659.22 TCPU    16640.95
 TTTTTTTTTTTTTTTTTTTTTTTTTTTTTT SHELLXN     TELAPSE    17092.53 TCPU    17072.36
 TTTTTTTTTTTTTTTTTTTTTTTTTTTTTT MONMO3      TELAPSE    17160.56 TCPU    17140.39
 NUMERICALLY INTEGRATED DENSITY     66.0004738899     66.0004738507
 TTTTTTTTTTTTTTTTTTTTTTTTTTTTTT NUMDFT      TELAPSE    17162.79 TCPU    17142.62
 CYC  33 ETOT(AU) -9.203537592368E+02 DETOT -5.48E-10 tst  1.65E-12 PX  3.70E-06
 CYCLE 33 WAVE FUNCTION SAVED IN FORTRAN UNIT 79
 MODIFIED BROYDEN: MIX%=  60 W0=  1.000000000000E-02 W=  4.590245927649E+04
 TTTTTTTTTTTTTTTTTTTTTTTTTTTTTT FDIK        TELAPSE    17163.50 TCPU    17143.24
 SPIN LOCKING: NO ENERGY GAP COMPUTED
 TTTTTTTTTTTTTTTTTTTTTTTTTTTTTT PDIG        TELAPSE    17163.68 TCPU    17143.43
 CHARGE NORMALIZATION FACTOR   1.00000000
 TOTAL ATOMIC CHARGES:
   0.1708963   0.1708963   0.1708963   0.1708963  18.0416656  18.0416778
  18.0416799  18.0416658   7.3937160   7.3937160   7.3937153   7.3937153
   7.3937160   7.3937160   7.3937154   7.3937154
 SUMMED SPIN DENSITY          -0.00000000
 TOTAL ATOMIC SPINS  :
  -0.0000003  -0.0000003  -0.0000003  -0.0000003   0.5614488  -0.5614528
  -0.5614524   0.5614487   0.0000012   0.0000012   0.0000011   0.0000011
   0.0000012   0.0000012   0.0000010   0.0000010
 TTTTTTTTTTTTTTTTTTTTTTTTTTTTTT MOQGAD      TELAPSE    17163.71 TCPU    17143.45
 TTTTTTTTTTTTTTTTTTTTTTTTTTTTTT SHELLXN     TELAPSE    17594.81 TCPU    17574.24
 TTTTTTTTTTTTTTTTTTTTTTTTTTTTTT MONMO3      TELAPSE    17665.01 TCPU    17644.44
 NUMERICALLY INTEGRATED DENSITY     66.0004738901     66.0004738509
 TTTTTTTTTTTTTTTTTTTTTTTTTTTTTT NUMDFT      TELAPSE    17667.24 TCPU    17646.67
 CYC  34 ETOT(AU) -9.203537592368E+02 DETOT -2.54E-11 tst  4.21E-13 PX  1.54E-06
 CYCLE 34 WAVE FUNCTION SAVED IN FORTRAN UNIT 79
 MODIFIED BROYDEN: MIX%=  60 W0=  1.000000000000E-02 W=  1.430911668803E+05
 TTTTTTTTTTTTTTTTTTTTTTTTTTTTTT FDIK        TELAPSE    17667.89 TCPU    17647.02
 SPIN LOCKING: NO ENERGY GAP COMPUTED
 TTTTTTTTTTTTTTTTTTTTTTTTTTTTTT PDIG        TELAPSE    17668.07 TCPU    17647.20
 CHARGE NORMALIZATION FACTOR   1.00000000
 TOTAL ATOMIC CHARGES:
   0.1708964   0.1708964   0.1708964   0.1708964  18.0416657  18.0416782
  18.0416798  18.0416659   7.3937158   7.3937158   7.3937154   7.3937154
   7.3937160   7.3937160   7.3937152   7.3937152
 SUMMED SPIN DENSITY          -0.00000000
 TOTAL ATOMIC SPINS  :
  -0.0000003  -0.0000003  -0.0000003  -0.0000003   0.5614488  -0.5614524
  -0.5614525   0.5614486   0.0000011   0.0000011   0.0000011   0.0000011
   0.0000011   0.0000011   0.0000010   0.0000010
 TTTTTTTTTTTTTTTTTTTTTTTTTTTTTT MOQGAD      TELAPSE    17668.10 TCPU    17647.23
 TTTTTTTTTTTTTTTTTTTTTTTTTTTTTT SHELLXN     TELAPSE    18098.78 TCPU    18077.95
 +++ ENERGIES IN A.U. +++
 ::: EXT EL-POLE                                  -4.6760652138992E+03
 ::: EXT EL-SPHEROPOLE                             2.2817631864710E+01
 ::: BIELET ZONE E-E                               5.0951090622797E+03
 ::: TOTAL E-E                                     4.4186148024519E+02
 ::: TOTAL E-N + N-E                              -1.4614290195179E+03
 ::: TOTAL N-N                                    -4.1431339568884E+02
 ::: KINETIC ENERGY                                5.9606190929255E+02
 ::: PSEUDO TOTAL   ENERGY                        -8.3781902566897E+02
 ::: VIRIAL COEFFICIENT                            8.3139665889838E-01
 TTTTTTTTTTTTTTTTTTTTTTTTTTTTTT MONMO3      TELAPSE    18169.44 TCPU    18148.62
 NUMERICALLY INTEGRATED DENSITY     66.0004738901     66.0004738509
 TTTTTTTTTTTTTTTTTTTTTTTTTTTTTT NUMDFT      TELAPSE    18171.68 TCPU    18150.86
 CYC  35 ETOT(AU) -9.203537592369E+02 DETOT -7.19E-11 tst  2.08E-14 PX  1.54E-06

 == SCF ENDED - CONVERGENCE ON ENERGY      E(AU) -9.2035375923687E+02 CYCLES  35


 ENERGY EXPRESSION=HARTREE+FOCK EXCH*0.00000+(HSESOL     EXCH)*1.00000+PBESOL     CORR

 FINITE TEMPERATURE DFT CALCULATION 
 TEMPERATURE      (T)    1.000000000000E-13 HARTREE 
 ENERGY           (E)   -9.203537592369E+02
 FREE ENERGY      (F)   -9.203537592369E+02
 ELECTRON ENTROPY (S)    0.000000000000E+00
 (E(T)+F(T))/2    (E0)  -9.203537592369E+02


 TOTAL ENERGY(DFT)(AU)( 35) -9.2035375923687E+02 DE-7.2E-11 tester 2.1E-14
 TTTTTTTTTTTTTTTTTTTTTTTTTTTTTT EDFT        TELAPSE    18171.69 TCPU    18150.87
 EIGENVECTORS IN FORTRAN UNIT 10
 TTTTTTTTTTTTTTTTTTTTTTTTTTTTTT END         TELAPSE    18172.46 TCPU    18151.58
 EEEEEEEEEE TERMINATION  DATE 29 11 2017 TIME 03:26:14.0
NODE    0 CPU TIME =     18151.583
NODE    1 CPU TIME =     18140.129
NODE    2 CPU TIME =     18152.090
NODE    3 CPU TIME =     18153.689
NODE    4 CPU TIME =     18152.527
NODE    5 CPU TIME =     18156.707
NODE    6 CPU TIME =     18151.596
NODE    7 CPU TIME =     18142.986
NODE    8 CPU TIME =     18154.843
NODE    9 CPU TIME =     18152.746
NODE   10 CPU TIME =     18148.699
NODE   11 CPU TIME =     18145.706
NODE   12 CPU TIME =     18151.000
NODE   13 CPU TIME =     18156.365
NODE   14 CPU TIME =     18157.090
NODE   15 CPU TIME =     18153.671
    TOTAL CPU TIME =    290421.427
