--------------------------------------------------------------------------
[[29214,1],1]: A high-performance Open MPI point-to-point messaging module
was unable to find any relevant network interfaces:

Module: OpenFabrics (openib)
  Host: golub052

Another transport will be used instead, although this may result in
lower performance.
--------------------------------------------------------------------------
 PROCESS           10  OF           16  WORKING
 PROCESS            8  OF           16  WORKING
 PROCESS            6  OF           16  WORKING
 PROCESS           11  OF           16  WORKING
 PROCESS            2  OF           16  WORKING
 PROCESS           12  OF           16  WORKING
 PROCESS            0  OF           16  WORKING
 PROCESS            3  OF           16  WORKING
 PROCESS           15  OF           16  WORKING
 PROCESS           13  OF           16  WORKING
 PROCESS            4  OF           16  WORKING
 PROCESS            7  OF           16  WORKING
 PROCESS            9  OF           16  WORKING
 PROCESS           14  OF           16  WORKING
 PROCESS            5  OF           16  WORKING
 PROCESS            1  OF           16  WORKING

         
 *******************************************************************************
 *                                                                             *
 *                               CRYSTAL17                                     *
 *                      public : 1.0.1 - Jun 21st, 2017                        *
 *                       HTTP://WWW.CRYSTAL.UNITO.IT                           *
 *                                                                             *
 *                              MAIN AUTHORS                                   *
 *                                                                             *
 *  R. DOVESI(1,11), V.R. SAUNDERS(2), C. ROETTI(1,11), R. ORLANDO(1,11),      *
 *  C.M. ZICOVICH-WILSON(1,3), F. PASCALE(4), B. CIVALLERI(1,11),              *
 *  K. DOLL(5), N.M. HARRISON(2,6), I.J. BUSH(7), Ph. D'ARCO(8),               *
 *  M. LLUNELL(9), M. CAUSA'(10), Y. NOEL(8), L. MASCHIO(1,11), A. ERBA(1,11)  *
 *  M. RE'RAT(14), S. CASASSA(1,11)                                            *
 *                                                                             *
 *        CONTRIBUTIONS TO THE CODE HAVE ALSO BEEN GIVEN BY                    *
 *                                                                             *
 *  M. FERRABONE(1,11), M. DE LA PIERRE(1,11), M. FERRERO(1,11),               *
 *  J. BAIMA(1,11), E. ALBANESE(1,11), M.F. PEINTINGER(12), R. BAST(13),       *
 *  B. KIRTMAN(15), V. LACIVITA(1,11), R. DEMICHELIS(1,16)                     *
 *  G. BRANDEBURG(17), S. SALUSTRO(1,11), G. SANSONE(1,11)                     *
 *  M.T. RUGGIERO(18)                                                          *
 *                                                                             *
 * (1) THEORETICAL CHEMISTRY GROUP - UNIVERSITA' DI TORINO - TORINO (ITALY)    *

 * (2) COMPUTATIONAL SCIENCE & ENGINEERING DEPARTMENT - STFC DARESBURY (UK)    *
 * (3) UNIVERSIDAD AUTONOMA DEL ESTADO DE MORELOS - CUERNAVACA (MEXICO)        *
 * (4) UNIVERSITE' DE LORRAINE - NANCY (FRANCE)                                *
 * (5) UNIVERSITAET STUTTGART- STUTTGART (GERMANY)                             *
 * (6) IMPERIAL COLLEGE - LONDON (UK)                                          *
 * (7) OXFORD E-RESEARCH CENTRE - OXFORD (UK)                                  *
 * (8) UPMC - SORBONNE UNIVERSITES - PARIS (FRANCE)                            *
 * (9) UNIVERSIDAD DE BARCELONA - BARCELONA (SPAIN)                            *
 *(10) UNIVERSITA' DI NAPOLI "FEDERICO II" - NAPOLI (ITALY)                    *
 *(11) NIS - NANOSTRUCTURED INTERFACES AND SURFACES - TORINO (ITALY)           *
 *(12) MPI FUER CHEMISCHE ENERGIEKONVERSION - MUELHEIM AN DER RUHR (GERMANY)   *
 *(13) UNIVERSITY OF TROMSO - TROMSO (NORWAY)                                  *
 *(14) UNIVERSITE' DE PAU ET DES PAYS DE L'ADOUR - PAU (FRANCE)                *
 *(15) UNIVERSITY OF CALIFORNIA SANTA BARBARA - SANTA BARBARA (USA)            *
 *(16) CURTIN UNIVERSITY - PERTH (AUSTRALIA)                                   *
 *(17) UNIVERSITY COLLEGE LONDON - LONDON (UK)                                 *
 *(18) CAMBRIDGE UNIVERSITY - CAMBRIDGE (UK)                                   *
 *                                                                             *
 *******************************************************************************
 EEEEEEEEEE STARTING  DATE 29 11 2017 TIME 03:30:06.0
 Generated by CrystalWriter                                                      

 CRYSTAL CALCULATION
 (INPUT ACCORDING TO THE INTERNATIONAL TABLES FOR X-RAY CRYSTALLOGRAPHY)
 CRYSTAL FAMILY                       :  TETRAGONAL  
 CRYSTAL CLASS  (GROTH - 1921)        :  DITETRAGONAL DIPYRAMIDAL             

 SPACE GROUP (CENTROSYMMETRIC)        :  P 4/M M M       

 LATTICE PARAMETERS  (ANGSTROMS AND DEGREES) - CONVENTIONAL CELL
        A           B           C        ALPHA        BETA       GAMMA
     7.85570     7.85570     3.43380    90.00000    90.00000    90.00000


 NUMBER OF IRREDUCIBLE ATOMS IN THE CONVENTIONAL CELL:   16

 INPUT COORDINATES

 ATOM AT. N.              COORDINATES
   1 238     2.500000000000E-01  7.500000000000E-01  5.000000000000E-01
   2 238     2.500000000000E-01  2.500000000000E-01  5.000000000000E-01
   3 238     7.500000000000E-01  2.500000000000E-01  5.000000000000E-01
   4 238     7.500000000000E-01  7.500000000000E-01  5.000000000000E-01
   5 229     5.000000000000E-01  5.000000000000E-01  0.000000000000E+00
   6 229     0.000000000000E+00  5.000000000000E-01  0.000000000000E+00
   7 229     0.000000000000E+00  0.000000000000E+00  0.000000000000E+00
   8 229     5.000000000000E-01  0.000000000000E+00  0.000000000000E+00
   9 208     0.000000000000E+00  2.500000000000E-01  0.000000000000E+00
  10 208     7.500000000000E-01  5.000000000000E-01  0.000000000000E+00
  11 208     5.000000000000E-01  2.500000000000E-01  0.000000000000E+00
  12 208     2.500000000000E-01  5.000000000000E-01  0.000000000000E+00
  13 208     7.500000000000E-01  0.000000000000E+00  0.000000000000E+00
  14 208     0.000000000000E+00  7.500000000000E-01  0.000000000000E+00
  15 208     5.000000000000E-01  7.500000000000E-01  0.000000000000E+00
  16 208     2.500000000000E-01  0.000000000000E+00  0.000000000000E+00

 *******************************************************************************

 << INFORMATION >>: FROM NOW ON, ALL COORDINATES REFER TO THE PRIMITIVE CELL

 *******************************************************************************

 LATTICE PARAMETERS  (ANGSTROMS AND DEGREES) - PRIMITIVE CELL
       A          B          C        ALPHA      BETA     GAMMA        VOLUME
    7.85570    7.85570    3.43380    90.00000  90.00000  90.00000    211.906743

 INPUT LIST - ATOM N.   3 NOT IRREDUCIBLE

 INPUT LIST - ATOM N.   2 NOT IRREDUCIBLE

 INPUT LIST - ATOM N.   4 NOT IRREDUCIBLE

 INPUT LIST - ATOM N.   7 NOT IRREDUCIBLE

 INPUT LIST - ATOM N.  15 NOT IRREDUCIBLE

 INPUT LIST - ATOM N.  14 NOT IRREDUCIBLE

 INPUT LIST - ATOM N.  11 NOT IRREDUCIBLE

 INPUT LIST - ATOM N.  10 NOT IRREDUCIBLE

 INPUT LIST - ATOM N.  16 NOT IRREDUCIBLE

 INPUT LIST - ATOM N.  12 NOT IRREDUCIBLE

 COORDINATES OF THE EQUIVALENT ATOMS (FRACTIONAL UNITS)

 N. ATOM EQUIV AT. N.          X                  Y                  Z

   1   1   1  238 SR    2.50000000000E-01 -2.50000000000E-01 -5.00000000000E-01
   2   1   2  238 SR   -2.50000000000E-01  2.50000000000E-01 -5.00000000000E-01
   3   1   3  238 SR    2.50000000000E-01  2.50000000000E-01  5.00000000000E-01
   4   1   4  238 SR   -2.50000000000E-01 -2.50000000000E-01  5.00000000000E-01




   5   5   1  229 CU   -5.00000000000E-01 -5.00000000000E-01  0.00000000000E+00

   6   6   1  229 CU    0.00000000000E+00 -5.00000000000E-01  0.00000000000E+00
   7   6   2  229 CU    5.00000000000E-01  0.00000000000E+00  0.00000000000E+00

 NUMBER OF SYMMETRY OPERATORS         :   16
 *******************************************************************************
 * GEOMETRY EDITING - INPUT COORDINATES ARE GIVEN IN ANGSTROM         
 *******************************************************************************

 GEOMETRY NOW FULLY CONSISTENT WITH THE GROUP
 SSSSSSSSSSSSSSSSSSSSSSSSSSSSSSSSSSSSSSSSSSSSSSSSSSSSSSSSSSSSSSSSSSSSSSSSSSSSSS
 REDUCTION OF SYMMETRY - ATOMIC LABELS SET TO (ATOM, AT. N., LABEL)
   1(238) 1;   2(238) 1;   3(238) 1;   4(238) 1;   5(229) 2;   6(229) 2;
   7(229) 2;   8(229) 2;   9(208) 3;  10(208) 3;  11(208) 3;  12(208) 3;
  13(208) 3;  14(208) 3;  15(208) 3;  16(208) 3;
 WARNING **** MODSYM **** GEOMETRICAL SYMMETRY NOT REDUCED

 GCALCO - MAX INDICES DIRECT LATTICE VECTOR    11    11    25
 NO.OF VECTORS CREATED 6999 STARS  550 RMAX   133.78549 BOHR

 GEOMETRY FOR WAVE FUNCTION - DIMENSIONALITY OF THE SYSTEM    3
 (NON PERIODIC DIRECTION: LATTICE PARAMETER FORMALLY SET TO 500)
 *******************************************************************************
 LATTICE PARAMETERS (ANGSTROMS AND DEGREES) - BOHR = 0.5291772083 ANGSTROM
 PRIMITIVE CELL - CENTRING CODE 1/0 VOLUME=   211.906743 - DENSITY  5.731 g/cm^3
         A              B              C           ALPHA      BETA       GAMMA 
     7.85570000     7.85570000     3.43380000    90.000000  90.000000  90.000000
 *******************************************************************************
 ATOMS IN THE ASYMMETRIC UNIT    6 - ATOMS IN THE UNIT CELL:   16
     ATOM                 X/A                 Y/B                 Z/C    
 *******************************************************************************
      1 T 238 SR    2.500000000000E-01 -2.500000000000E-01  5.000000000000E-01
      2 F 238 SR   -2.500000000000E-01  2.500000000000E-01  5.000000000000E-01
      3 F 238 SR    2.500000000000E-01  2.500000000000E-01  5.000000000000E-01
      4 F 238 SR   -2.500000000000E-01 -2.500000000000E-01  5.000000000000E-01
      5 T 229 CU   -5.000000000000E-01 -5.000000000000E-01  0.000000000000E+00
      6 T 229 CU    0.000000000000E+00 -5.000000000000E-01  0.000000000000E+00
      7 F 229 CU   -5.000000000000E-01  0.000000000000E+00  0.000000000000E+00
      8 T 229 CU    0.000000000000E+00  0.000000000000E+00  0.000000000000E+00
      9 T 208 O     0.000000000000E+00  2.500000000000E-01  0.000000000000E+00
     10 F 208 O     0.000000000000E+00 -2.500000000000E-01  0.000000000000E+00
     11 F 208 O    -2.500000000000E-01  0.000000000000E+00  0.000000000000E+00
     12 F 208 O     2.500000000000E-01  0.000000000000E+00  0.000000000000E+00
     13 T 208 O    -2.500000000000E-01 -5.000000000000E-01  0.000000000000E+00
     14 F 208 O     2.500000000000E-01 -5.000000000000E-01  0.000000000000E+00
     15 F 208 O    -5.000000000000E-01  2.500000000000E-01  0.000000000000E+00
     16 F 208 O    -5.000000000000E-01 -2.500000000000E-01  0.000000000000E+00

 T = ATOM BELONGING TO THE ASYMMETRIC UNIT

 ****   16 SYMMOPS - TRANSLATORS IN FRACTIONAL UNITS
 **** MATRICES AND TRANSLATORS IN THE CRYSTALLOGRAPHIC REFERENCE FRAME
   V INV                    ROTATION MATRICES                   TRANSLATORS
   1   1  1.00  0.00  0.00  0.00  1.00  0.00  0.00  0.00  1.00  0.00  0.00  0.00
   2   2 -1.00  0.00  0.00  0.00 -1.00  0.00  0.00  0.00  1.00  0.00  0.00  0.00
   3   3  1.00  0.00  0.00  0.00 -1.00  0.00  0.00  0.00 -1.00  0.00  0.00  0.00
   4   4 -1.00  0.00  0.00  0.00  1.00  0.00  0.00  0.00 -1.00  0.00  0.00  0.00
   5   5  0.00 -1.00  0.00 -1.00  0.00  0.00  0.00  0.00 -1.00  0.00  0.00  0.00
   6   6  0.00  1.00  0.00  1.00  0.00  0.00  0.00  0.00 -1.00  0.00  0.00  0.00
   7   8  0.00  1.00  0.00 -1.00  0.00  0.00  0.00  0.00  1.00  0.00  0.00  0.00
   8   7  0.00 -1.00  0.00  1.00  0.00  0.00  0.00  0.00  1.00  0.00  0.00  0.00
   9   9 -1.00  0.00  0.00  0.00 -1.00  0.00  0.00  0.00 -1.00  0.00  0.00  0.00
  10  10  1.00  0.00  0.00  0.00  1.00  0.00  0.00  0.00 -1.00  0.00  0.00  0.00
  11  11 -1.00  0.00  0.00  0.00  1.00  0.00  0.00  0.00  1.00  0.00  0.00  0.00
  12  12  1.00  0.00  0.00  0.00 -1.00  0.00  0.00  0.00  1.00  0.00  0.00  0.00
  13  13  0.00  1.00  0.00  1.00  0.00  0.00  0.00  0.00  1.00  0.00  0.00  0.00
  14  14  0.00 -1.00  0.00 -1.00  0.00  0.00  0.00  0.00  1.00  0.00  0.00  0.00
  15  16  0.00 -1.00  0.00  1.00  0.00  0.00  0.00  0.00 -1.00  0.00  0.00  0.00
  16  15  0.00  1.00  0.00 -1.00  0.00  0.00  0.00  0.00 -1.00  0.00  0.00  0.00

 DIRECT LATTICE VECTORS CARTESIAN COMPONENTS (ANGSTROM)
          X                    Y                    Z
   0.785570000000E+01   0.000000000000E+00   0.000000000000E+00
   0.000000000000E+00   0.785570000000E+01   0.000000000000E+00
   0.000000000000E+00   0.000000000000E+00   0.343380000000E+01


 CARTESIAN COORDINATES - PRIMITIVE CELL
 *******************************************************************************
 *      ATOM          X(ANGSTROM)         Y(ANGSTROM)         Z(ANGSTROM)
 *******************************************************************************
    1   238 SR    1.963925000000E+00 -1.963925000000E+00  1.716900000000E+00
    2   238 SR   -1.963925000000E+00  1.963925000000E+00  1.716900000000E+00
    3   238 SR    1.963925000000E+00  1.963925000000E+00  1.716900000000E+00
    4   238 SR   -1.963925000000E+00 -1.963925000000E+00  1.716900000000E+00
    5   229 CU    3.927850000000E+00  3.927850000000E+00  0.000000000000E+00
    6   229 CU    0.000000000000E+00  3.927850000000E+00  0.000000000000E+00
    7   229 CU    3.927850000000E+00  0.000000000000E+00  0.000000000000E+00
    8   229 CU    0.000000000000E+00  0.000000000000E+00  0.000000000000E+00
    9   208 O     0.000000000000E+00  1.963925000000E+00  0.000000000000E+00
   10   208 O     0.000000000000E+00 -1.963925000000E+00  0.000000000000E+00
   11   208 O    -1.963925000000E+00  0.000000000000E+00  0.000000000000E+00
   12   208 O     1.963925000000E+00  0.000000000000E+00  0.000000000000E+00
   13   208 O    -1.963925000000E+00  3.927850000000E+00  0.000000000000E+00
   14   208 O     1.963925000000E+00  3.927850000000E+00  0.000000000000E+00
   15   208 O     3.927850000000E+00  1.963925000000E+00  0.000000000000E+00
   16   208 O     3.927850000000E+00 -1.963925000000E+00  0.000000000000E+00

 *******************************************************************************
 *** PSEUDOPOTENTIAL INFORMATION ***
 *******************************************************************************

 ATOMIC NUMBER  29, NUCLEAR CHARGE 19.000, GIVEN IN INPUT       PSEUDOPOTENTIAL
   TYPE       EXPONENT      COEFF.    N      EXPONENT      COEFF.    N
  W0 TMS     6.2514963   19.0000000  -1     6.7272533  118.7784294   1
             6.6102459 -105.8998240   0
  P0 TMS    12.3656871  127.3506942   0
  P1 TMS    11.1607294   71.2298490   0

 ATOMIC NUMBER   8, NUCLEAR CHARGE  6.000, GIVEN IN INPUT       PSEUDOPOTENTIAL
   TYPE       EXPONENT      COEFF.    N      EXPONENT      COEFF.    N
  W0 TMS     9.2979390    6.0000000  -1     8.8649220   55.7876342   1
             8.6292567  -38.8197850   0
  P0 TMS     8.7192445   38.4191413   0

 ATOMIC NUMBER  38, NUCLEAR CHARGE  2.000, GIVEN IN INPUT       PSEUDOPOTENTIAL
   TYPE       EXPONENT      COEFF.    N      EXPONENT      COEFF.    N
  W0 TMS     4.3839388    2.0000000  -1     3.1964983    8.7678775   1
             0.9899150  -14.2552431   0
  P0 TMS     1.2868349  146.8716052   0
  P1 TMS     0.9567448  140.0262284   0
  P2 TMS     1.9483165   24.4454878   0

 *******************************************************************************
 LOCAL ATOMIC FUNCTIONS BASIS SET
 *******************************************************************************
   ATOM   X(AU)   Y(AU)   Z(AU)  N. TYPE  EXPONENT  S COEF   P COEF   D/F/G COEF
 *******************************************************************************
   1 SR   3.711  -3.711   3.244
                                  1 S  
                                         2.177E-01-9.389E-02 0.000E+00 0.000E+00
                                         4.871E-01-2.476E-01 0.000E+00 0.000E+00
                                         1.090E+00 1.601E-01 0.000E+00 0.000E+00
                                         2.439E+00-4.360E-02 0.000E+00 0.000E+00
                                         5.457E+00 8.684E-03 0.000E+00 0.000E+00
                                         1.221E+01-1.296E-03 0.000E+00 0.000E+00
                           2-     4 P  
                                         2.236E-01 0.000E+00-4.747E-02 0.000E+00
                                         4.507E-01 0.000E+00-1.710E-01 0.000E+00
                                         9.086E-01 0.000E+00 1.048E-01 0.000E+00
                                         1.831E+00 0.000E+00-2.952E-02 0.000E+00
                                         3.692E+00 0.000E+00 6.196E-03 0.000E+00
                                         7.442E+00 0.000E+00-9.550E-04 0.000E+00
                           5-     9 D  
                                         5.283E-01 0.000E+00 0.000E+00 1.000E+00
                                 10 S  
                                         2.000E-01 1.000E+00 0.000E+00 0.000E+00
                                 11 S  
                                         6.000E-01 1.000E+00 0.000E+00 0.000E+00
                          12-    14 P  
                                         2.000E-01 0.000E+00 1.000E+00 0.000E+00
                          15-    17 P  
                                         6.000E-01 0.000E+00 1.000E+00 0.000E+00
   2 SR  -3.711   3.711   3.244
   3 SR   3.711   3.711   3.244
   4 SR  -3.711  -3.711   3.244
   5 CU   7.423   7.423   0.000
                                 69 S  
                                         2.785E+01-1.934E-02 0.000E+00 0.000E+00
                                         2.142E+01 8.861E-02 0.000E+00 0.000E+00
                                         1.054E+01-3.559E-01 0.000E+00 0.000E+00
                                         2.536E+00 5.381E-01 0.000E+00 0.000E+00
                                         1.250E+00 5.111E-01 0.000E+00 0.000E+00
                                         5.998E-01 1.476E-01 0.000E+00 0.000E+00
                                 70 S  
                                         2.785E+01-2.653E-03 0.000E+00 0.000E+00
                                         2.142E+01-7.542E-03 0.000E+00 0.000E+00
                                         1.054E+01 7.976E-02 0.000E+00 0.000E+00
                                         2.536E+00-1.553E-01 0.000E+00 0.000E+00
                                         1.250E+00-2.531E-01 0.000E+00 0.000E+00
                                         5.998E-01-2.817E-02 0.000E+00 0.000E+00
                          71-    73 P  
                                         1.859E+01 0.000E+00 3.652E-03 0.000E+00
                                         1.430E+01 0.000E+00-3.708E-02 0.000E+00
                                         5.631E+00 0.000E+00 2.171E-01 0.000E+00
                                         2.683E+00 0.000E+00 4.410E-01 0.000E+00
                                         1.259E+00 0.000E+00 3.587E-01 0.000E+00
                                         5.741E-01 0.000E+00 1.148E-01 0.000E+00
                                         2.092E-01 0.000E+00 7.316E-03 0.000E+00
                          74-    78 D  
                                         1.579E+01 0.000E+00 0.000E+00 8.422E-02
                                         7.203E+00 0.000E+00 0.000E+00 2.554E-01
                                         2.974E+00 0.000E+00 0.000E+00 3.500E-01
                                         1.207E+00 0.000E+00 0.000E+00 3.417E-01
                                         4.640E-01 0.000E+00 0.000E+00 2.417E-01
                          79-    85 F  
                                         1.692E+00 0.000E+00 0.000E+00 1.000E+00
                                 86 S  
                                         2.000E-01 1.000E+00 0.000E+00 0.000E+00
                                 87 S  
                                         6.000E-01 1.000E+00 0.000E+00 0.000E+00
                          88-    90 P  
                                         2.000E-01 0.000E+00 1.000E+00 0.000E+00
                          91-    93 P  
                                         6.000E-01 0.000E+00 1.000E+00 0.000E+00
                          94-    98 D  
                                         2.000E-01 0.000E+00 0.000E+00 1.000E+00
                          99-   103 D  
                                         6.000E-01 0.000E+00 0.000E+00 1.000E+00
   6 CU   0.000   7.423   0.000
   7 CU   7.423   0.000   0.000
   8 CU   0.000   0.000   0.000
   9 O    0.000   3.711   0.000
                                209 S  
                                         2.680E-01 3.048E-01 0.000E+00 0.000E+00
                                         5.731E-01 4.538E-01 0.000E+00 0.000E+00
                                         1.225E+00 2.959E-01 0.000E+00 0.000E+00
                                         2.620E+00 1.957E-02 0.000E+00 0.000E+00
                                         5.603E+00-1.286E-01 0.000E+00 0.000E+00
                                         1.198E+01 1.202E-02 0.000E+00 0.000E+00
                                         2.562E+01 4.070E-04 0.000E+00 0.000E+00
                                         5.478E+01-7.600E-05 0.000E+00 0.000E+00
                         210-   212 P  
                                         3.337E-01 0.000E+00 2.560E-01 0.000E+00
                                         6.666E-01 0.000E+00 2.819E-01 0.000E+00
                                         1.332E+00 0.000E+00 2.428E-01 0.000E+00
                                         2.661E+00 0.000E+00 1.611E-01 0.000E+00
                                         5.316E+00 0.000E+00 8.231E-02 0.000E+00
                                         1.062E+01 0.000E+00 3.990E-02 0.000E+00
                                         2.122E+01 0.000E+00 4.679E-03 0.000E+00
                         213-   217 D  
                                         6.693E-01 0.000E+00 0.000E+00 1.000E+00
                         218-   224 F  
                                         1.423E+00 0.000E+00 0.000E+00 1.000E+00
                                225 S  
                                         2.000E-01 1.000E+00 0.000E+00 0.000E+00
                                226 S  
                                         6.000E-01 1.000E+00 0.000E+00 0.000E+00
                         227-   229 P  
                                         2.000E-01 0.000E+00 1.000E+00 0.000E+00
                         230-   232 P  
                                         6.000E-01 0.000E+00 1.000E+00 0.000E+00
  10 O    0.000  -3.711   0.000
  11 O   -3.711   0.000   0.000
  12 O    3.711   0.000   0.000
  13 O   -3.711   7.423   0.000
  14 O    3.711   7.423   0.000
  15 O    7.423   3.711   0.000
  16 O    7.423  -3.711   0.000
 INFORMATION **** SET_MPP **** PCRYSTAL CALCULATION
 INFORMATION **** READM2 **** NEW DEFAULT: FOCK/KS MATRIX MIXING SET TO 30 %
 INFORMATION **** READM2 **** NEW DEFAULT: FULL DIRECT SCF MODE
 INFORMATION **** READM2 **** NEW DEFAULT: COULOMB BIPOLAR BUFFER SET TO 32 Mb
 INFORMATION **** READM2 **** NEW DEFAULT: EXCHANGE BIPOLAR BUFFER SET TO 32 Mb

 *******************************************************************************
 NEW DEFAULT: DFT INTEGRATION GRID INCREASED TO XLGRID
 NEW DEFAULT: DIIS ACCELERATOR ACTIVE
 USE KEYWORD NODIIS TO TURN IT OFF
 *******************************************************************************

 WARNING **** RDDFTP **** HSEsol-HJS ACTIVE
 RANGE SEPARATION - OMEGA:   0.110000000000000     
 INFORMATION **** READM2 **** FULL DIRECT SCF (MONO AND BIEL INT) SELECTED
 INFORMATION **** BIPOSIZE **** COULOMB BIPOLAR BUFFER SET TO   100000000
 INFORMATION **** EXCHSIZE **** EXCHANGE BIPOLAR BUFFER SIZE SET TO    10000000
 INFORMATION **** TOLDEE **** SCF TOL ON TOTAL ENERGY SET TO          10
 INFORMATION **** TOLINTEG **** COULOMB AND EXCHANGE SERIES TOLERANCES MODIFIED
 INFORMATION **** MAXCYCLE **** MAX NUMBER OF SCF CYCLES SET TO         200
 INFORMATION **** SMEAR **** FERMI SMEARING ACTIVE
 FERMI SMEARING - TEMPERATURE SMEARING OF FERMI SURFACE  0.1000E-12
 INFORMATION **** SAVEWF **** not fully tested
 INFORMATION **** SPINLOCK **** LOCK IN A GIVEN SPIN STATE
 ALPHA-BETA ELECTRONS LOCKED TO   4 FOR 200 SCF CYCLES
 SSSSSSSSSSSSSSSSSSSSSSSSSSSSSSSSSSSSSSSSSSSSSSSSSSSSSSSSSSSSSSSSSSSSSSSSSSSSSS
 ATOMIC SPINS SET TO (ATOM, AT. N., SPIN)
   1 238 0   2 238 0   3 238 0   4 238 0   5 229 1   6 229 1   7 229 1   8 229 1
   9 208 0  10 208 0  11 208 0  12 208 0  13 208 0  14 208 0  15 208 0  16 208 0

 MODIFIED BROYDEN MIXING OF THE FOCK MATRIX
 WO PARAMETER(D.D. Johnson, PRB38, 12807,(1988)             1.0000E-02
 % OF FOCK/KS MATRICES MIXING WHEN BROYDEN METHOD IS ON             60
 NUMBER OF SCF ITERATIONS AFTER WHICH BROYDEN METHOD IS ACTIVE      15
 *******************************************************************************
 N. OF ATOMS PER CELL        16  COULOMB OVERLAP TOL         (T1) 10**   -8
 NUMBER OF SHELLS           136  COULOMB PENETRATION TOL     (T2) 10**   -8
 NUMBER OF AO               400  EXCHANGE OVERLAP TOL        (T3) 10**   -8
 N. OF ELECTRONS PER CELL   132  EXCHANGE PSEUDO OVP (F(G))  (T4) 10**   -8
 CORE ELECTRONS PER CELL      0  EXCHANGE PSEUDO OVP (P(G))  (T5) 10**  -16
 N. OF SYMMETRY OPERATORS    16  POLE ORDER IN MONO ZONE                  4
 *******************************************************************************
 TYPE OF CALCULATION :  UNRESTRICTED OPEN SHELL
 KOHN-SHAM HAMILTONIAN

 (EXCHANGE)[CORRELATION] FUNCTIONAL:(HSEsol GGA)[PBEsol]

 RANGE-SEPARATED HYBRID FUNCTIONAL 
 OMEGA (SHORT-RANGE)[LONG-RANGE]:(    0.1100)[    0.0000]

 HYBRID EXCHANGE - PERCENTAGE OF FOCK EXCHANGE    25.0000

 SPIN POLARIZED DFT SELECTED
 CORE  PSEUDO POTENTIAL         TOL. ON PSEUDO              (TP) 10**- 6
 SPIN POLARIZATION - ALPHA-BETA =  4 FOR 200 CYCLES

 CAPPA:IS1  4;IS2  4;IS3  4; K PTS MONK NET  18; SYMMOPS:K SPACE  16;G SPACE  16

 *******************************************************************************
 MAX NUMBER OF SCF CYCLES     200  CONVERGENCE ON DELTAP        10**-20
 WEIGHT OF F(I) IN F(I+1)      90% CONVERGENCE ON ENERGY        10**-10
 SPIN POLARIZATION - ALPHA-BETA =  4 FOR 200 CYCLES
 SHRINK. FACT.(MONKH.)    4  4  4  NUMBER OF K POINTS IN THE IBZ     18
 SHRINKING FACTOR(GILAT NET)    8  NUMBER OF K POINTS(GILAT NET)     75
 *******************************************************************************
 *** K POINTS COORDINATES (OBLIQUE COORDINATES IN UNITS OF IS =  4)
   1-R(  0  0  0)   2-C(  1  0  0)   3-R(  2  0  0)   4-C(  1  1  0)
   5-C(  2  1  0)   6-R(  2  2  0)   7-C(  0  0  1)   8-C(  1  0  1)
   9-C(  2  0  1)  10-C(  1  1  1)  11-C(  2  1  1)  12-C(  2  2  1)
  13-R(  0  0  2)  14-C(  1  0  2)  15-R(  2  0  2)  16-C(  1  1  2)
  17-C(  2  1  2)  18-R(  2  2  2)

 DIRECT LATTICE VECTORS COMPON. (A.U.)     RECIP. LATTICE VECTORS COMPON. (A.U.) 
        X            Y            Z              X            Y            Z
   14.8451216    0.0000000    0.0000000      0.4232492    0.0000000    0.0000000
    0.0000000   14.8451216    0.0000000      0.0000000    0.4232492    0.0000000
    0.0000000    0.0000000    6.4889416      0.0000000    0.0000000    0.9682912

 DISK SPACE FOR EIGENVECTORS (FTN 10)     4800000 REALS

 SYMMETRY ADAPTION OF THE BLOCH FUNCTIONS ENABLED
 TTTTTTTTTTTTTTTTTTTTTTTTTTTTTT gordsh1     TELAPSE        1.51 TCPU        0.02

 MATRIX SIZE: P(G) 1263000, F(G)  225436, P(G) IRR   69128, F(G) IRR   29980
 MAX G-VECTOR INDEX FOR 1- AND 2-ELECTRON INTEGRALS 103

 TTTTTTTTTTTTTTTTTTTTTTTTTTTTTT INPUT       TELAPSE        1.54 TCPU        0.05

 NEIGHBORS OF THE NON-EQUIVALENT ATOMS

 N = NUMBER OF NEIGHBORS AT DISTANCE R
    ATOM  N     R/ANG      R/AU   NEIGHBORS (ATOM LABELS AND CELL INDICES)
   1 SR   8     2.6086     4.9295   10 O    0 0 0   10 O    0 0 1   12 O    0 0 1
                                    12 O    0 0 0   14 O    0-1 0   14 O    0-1 1
                                    16 O    0 0 1   16 O    0 0 0
   1 SR   8     3.2652     6.1704    5 CU   0-1 0    5 CU   0-1 1    6 CU   0-1 0
                                     6 CU   0-1 1    7 CU   0 0 1    7 CU   0 0 0
                                     8 CU   0 0 0    8 CU   0 0 1
   1 SR   2     3.4338     6.4889    1 SR   0 0-1    1 SR   0 0 1
   1 SR   4     3.9278     7.4226    3 SR   0 0 0    3 SR   0-1 0    4 SR   0 0 0
                                     4 SR   1 0 0
   1 SR  16     4.7152     8.9104    9 O    0 0 0    9 O    0 0 1    9 O    0-1 0
                                     9 O    0-1 1   11 O    0 0 1   11 O    0 0 0
                                    11 O    1 0 1   11 O    1 0 0   13 O    0-1 0
                                    13 O    0-1 1   13 O    1-1 0   13 O    1-1 1
                                    15 O    0 0 1   15 O    0 0 0   15 O    0-1 1
                                    15 O    0-1 0
   1 SR   8     5.2172     9.8590    3 SR   0 0 1    3 SR   0 0-1    3 SR   0-1-1
                                     3 SR   0-1 1    4 SR   0 0-1    4 SR   0 0 1
                                     4 SR   1 0 1    4 SR   1 0-1

   5 CU   4     1.9639     3.7113   13 O    1 0 0   14 O    0 0 0   15 O    0 0 0
                                    16 O    0 1 0
   5 CU   8     3.2652     6.1704    1 SR   0 1 0    1 SR   0 1-1    2 SR   1 0 0
                                     2 SR   1 0-1    3 SR   0 0-1    3 SR   0 0 0
                                     4 SR   1 1-1    4 SR   1 1 0
   5 CU   2     3.4338     6.4889    5 CU   0 0-1    5 CU   0 0 1
   5 CU   4     3.9278     7.4226    6 CU   0 0 0    6 CU   1 0 0    7 CU   0 1 0
                                     7 CU   0 0 0
   5 CU   8     3.9558     7.4753   13 O    1 0-1   13 O    1 0 1   14 O    0 0-1
                                    14 O    0 0 1   15 O    0 0 1   15 O    0 0-1
                                    16 O    0 1 1   16 O    0 1-1
   5 CU   8     4.3915     8.2987    9 O    0 0 0    9 O    1 0 0   10 O    1 1 0
                                    10 O    0 1 0   11 O    1 1 0   11 O    1 0 0
                                    12 O    0 0 0   12 O    0 1 0

   6 CU   4     1.9639     3.7113    9 O    0 0 0   10 O    0 1 0   13 O    0 0 0
                                    14 O    0 0 0
   6 CU   8     3.2652     6.1704    1 SR   0 1 0    1 SR   0 1-1    2 SR   0 0 0
                                     2 SR   0 0-1    3 SR   0 0-1    3 SR   0 0 0
                                     4 SR   0 1-1    4 SR   0 1 0
   6 CU   2     3.4338     6.4889    6 CU   0 0-1    6 CU   0 0 1
   6 CU   4     3.9278     7.4226    5 CU   0 0 0    5 CU  -1 0 0    8 CU   0 1 0
                                     8 CU   0 0 0
   6 CU   8     3.9558     7.4753    9 O    0 0 1    9 O    0 0-1   10 O    0 1 1
                                    10 O    0 1-1   13 O    0 0-1   13 O    0 0 1
                                    14 O    0 0 1   14 O    0 0-1
   6 CU   8     4.3915     8.2987   11 O    0 1 0   11 O    0 0 0   12 O    0 0 0
                                    12 O    0 1 0   15 O   -1 0 0   15 O    0 0 0
                                    16 O    0 1 0   16 O   -1 1 0

   8 CU   4     1.9639     3.7113    9 O    0 0 0   10 O    0 0 0   11 O    0 0 0
                                    12 O    0 0 0
   8 CU   8     3.2652     6.1704    1 SR   0 0 0    1 SR   0 0-1    2 SR   0 0 0
                                     2 SR   0 0-1    3 SR   0 0-1    3 SR   0 0 0
                                     4 SR   0 0-1    4 SR   0 0 0
   8 CU   2     3.4338     6.4889    8 CU   0 0-1    8 CU   0 0 1
   8 CU   4     3.9278     7.4226    6 CU   0-1 0    6 CU   0 0 0    7 CU   0 0 0
                                     7 CU  -1 0 0
   8 CU   8     3.9558     7.4753    9 O    0 0 1    9 O    0 0-1   10 O    0 0-1
                                    10 O    0 0 1   11 O    0 0-1   11 O    0 0 1
                                    12 O    0 0 1   12 O    0 0-1
   8 CU   8     4.3915     8.2987   13 O    0 0 0   13 O    0-1 0   14 O    0-1 0
                                    14 O    0 0 0   15 O   -1 0 0   15 O    0 0 0
                                    16 O    0 0 0   16 O   -1 0 0

   9 O    2     1.9639     3.7113    6 CU   0 0 0    8 CU   0 0 0
   9 O    4     2.6086     4.9295    2 SR   0 0 0    2 SR   0 0-1    3 SR   0 0 0
                                     3 SR   0 0-1
   9 O    4     2.7774     5.2485   11 O    0 0 0   12 O    0 0 0   13 O    0 0 0
                                    14 O    0 0 0
   9 O    2     3.4338     6.4889    9 O    0 0-1    9 O    0 0 1
   9 O    4     3.9278     7.4226   10 O    0 0 0   10 O    0 1 0   15 O    0 0 0
                                    15 O   -1 0 0
   9 O    4     3.9558     7.4753    6 CU   0 0-1    6 CU   0 0 1    8 CU   0 0-1
                                     8 CU   0 0 1

  13 O    2     1.9639     3.7113    5 CU  -1 0 0    6 CU   0 0 0
  13 O    4     2.6086     4.9295    2 SR   0 0 0    2 SR   0 0-1    4 SR   0 1 0
                                     4 SR   0 1-1
  13 O    4     2.7774     5.2485    9 O    0 0 0   10 O    0 1 0   15 O   -1 0 0
                                    16 O   -1 1 0
  13 O    2     3.4338     6.4889   13 O    0 0-1   13 O    0 0 1
  13 O    4     3.9278     7.4226   11 O    0 1 0   11 O    0 0 0   14 O    0 0 0
                                    14 O   -1 0 0
  13 O    4     3.9558     7.4753    5 CU  -1 0 1    5 CU  -1 0-1    6 CU   0 0 1
                                     6 CU   0 0-1


 SYMMETRY ALLOWED INTERNAL DEGREE(S) OF FREEDOM:   3
 TTTTTTTTTTTTTTTTTTTTTTTTTTTTTT SYMM        TELAPSE        2.08 TCPU        0.48
 TTTTTTTTTTTTTTTTTTTTTTTTTTTTTT INT_SCREEN  TELAPSE        2.08 TCPU        0.48

 DFT PARAMETERS

     ATOM       ELECTRONS   NET CHARGE   R(ANGSTROM)
   1 238  SR      2.0000      0.0000     2.15000000
   5 229  CU     19.0000      0.0000     1.28000000
   9 208  O       6.0000      0.0000     0.74000000
[golub052:94500] 15 more processes have sent help message help-mpi-btl-base.txt / btl:no-nics
[golub052:94500] Set MCA parameter "orte_base_help_aggregate" to 0 to see all help / error messages

 SIZE OF GRID=      23266
 TTTTTTTTTTTTTTTTTTTTTTTTTTTTTT MAKE_GRID2  TELAPSE        5.64 TCPU        4.03
 BECKE WEIGHT FUNCTION
 RADSAFE =     2.00
 TOLERANCES - DENSITY:10**- 6; POTENTIAL:10**- 9; GRID WGT:10**-14

 RADIAL INTEGRATION  - INTERVALS (POINTS,UPPER LIMIT):            1( 75,  4.0*R)

 ANGULAR INTEGRATION - INTERVALS (ACCURACY LEVEL [N. POINTS] UPPER LIMIT):
  1(  4[  86]   0.2)  2(  8[ 194]   0.5)  3( 12[ 350]   0.9)  4( 16[ 974]   3.5)
  5( 12[ 350]9999.0)
 TTTTTTTTTTTTTTTTTTTTTTTTTTTTTT INT_CALC    TELAPSE        5.70 TCPU        4.10
 EEEEEEEEEE INT_CALC TERMINATION  DATE 29 11 2017 TIME 03:30:10.6

 *******************************************************************************
 Generated by CrystalWriter                                                      
 CRYSTAL - SCF - TYPE OF CALCULATION :  UNRESTRICTED OPEN SHELL
 *******************************************************************************

 CAPPA:IS1  4;IS2  4;IS3  4; K PTS MONK NET  18; SYMMOPS:K SPACE  16;G SPACE  16

 TTTTTTTTTTTTTTTTTTTTTTTTTTTTTT SDIK        TELAPSE        5.73 TCPU        4.13

 AAAAAAAAAAAAAAAAAAAAAAAAAAAAAAAAAAAAAAAAAAAAAAAAAAAAAAAAAAAAAAAAAAAAAAAAAAAAAAA
         ATOMIC WAVEFUNCTION(S)


 NUCLEAR CHARGE  2.0  SYMMETRY SPECIES            S
 N. ELECTRONS    2.0  NUMBER OF PRIMITIVE GTOS    8
                      NUMBER OF CONTRACTED GTOS   3
                      NUMBER OF CLOSED SHELLS     1
                      OPEN SHELL OCCUPATION       0

  ZNUC SCFIT  TOTAL HF ENERGY   KINETIC ENERGY   VIRIAL THEOREM ACCURACY
   2.0   2    4.768442247E-02  9.318589797E-01 -9.488287139E-01  3.2E-06

 NUCLEAR CHARGE 19.0  SYMMETRY SPECIES            S    P    D
 N. ELECTRONS   19.0  NUMBER OF PRIMITIVE GTOS   14    9    7
                      NUMBER OF CONTRACTED GTOS   4    3    3
                      NUMBER OF CLOSED SHELLS     2    1    0
                      OPEN SHELL OCCUPATION       0    0    9

  ZNUC SCFIT  TOTAL HF ENERGY   KINETIC ENERGY   VIRIAL THEOREM ACCURACY
  19.0  29   -1.960760767E+02  1.241876446E+02 -2.578869438E+00  4.6E-06

 NUCLEAR CHARGE  6.0  SYMMETRY SPECIES            S    P
 N. ELECTRONS    6.0  NUMBER OF PRIMITIVE GTOS   10    9
                      NUMBER OF CONTRACTED GTOS   3    3
                      NUMBER OF CLOSED SHELLS     1    0
                      OPEN SHELL OCCUPATION       0    4

  ZNUC SCFIT  TOTAL HF ENERGY   KINETIC ENERGY   VIRIAL THEOREM ACCURACY
   6.0  12   -1.570132578E+01  1.165279602E+01 -2.347429900E+00  3.6E-06

 AAAAAAAAAAAAAAAAAAAAAAAAAAAAAAAAAAAAAAAAAAAAAAAAAAAAAAAAAAAAAAAAAAAAAAAAAAAAAAA

 CHARGE NORMALIZATION FACTOR   1.00000000
 TOTAL ATOMIC CHARGES:
   2.0000000   2.0000000   2.0000000   2.0000000  19.0000000  19.0000000
  19.0000000  19.0000000   6.0000000   6.0000000   6.0000000   6.0000000
   6.0000000   6.0000000   6.0000000   6.0000000
 SUMMED SPIN DENSITY           4.00000000
 TOTAL ATOMIC SPINS  :
   0.0000000   0.0000000   0.0000000   0.0000000   1.0000000   1.0000000
   1.0000000   1.0000000   0.0000000   0.0000000   0.0000000   0.0000000
   0.0000000   0.0000000   0.0000000   0.0000000
 TTTTTTTTTTTTTTTTTTTTTTTTTTTTTT MOQGAD      TELAPSE        5.89 TCPU        4.29
 TTTTTTTTTTTTTTTTTTTTTTTTTTTTTT SHELLXN     TELAPSE      242.24 TCPU      240.59
 TTTTTTTTTTTTTTTTTTTTTTTTTTTTTT MONMO3      TELAPSE      292.36 TCPU      290.71
 NUMERICALLY INTEGRATED DENSITY     68.0001934235     64.0002018807
 TTTTTTTTTTTTTTTTTTTTTTTTTTTTTT NUMDFT      TELAPSE      292.86 TCPU      291.20
 CYC   0 ETOT(AU) -9.150902397404E+02 DETOT -9.15E+02 tst  0.00E+00 PX  1.00E+00
 CYCLE  0 WAVE FUNCTION SAVED IN FORTRAN UNIT 79
 TTTTTTTTTTTTTTTTTTTTTTTTTTTTTT FDIK        TELAPSE      293.39 TCPU      291.68
 SPIN LOCKING: NO ENERGY GAP COMPUTED
 TTTTTTTTTTTTTTTTTTTTTTTTTTTTTT PDIG        TELAPSE      293.46 TCPU      291.75
 CHARGE NORMALIZATION FACTOR   1.00000000
 TOTAL ATOMIC CHARGES:
   0.1342726   0.1342726   0.1342726   0.1342726  17.7314299  17.7314314
  17.7314314  17.7314303   7.5671485   7.5671485   7.5671485   7.5671485
   7.5671482   7.5671482   7.5671482   7.5671482
 SUMMED SPIN DENSITY           4.00000000
 TOTAL ATOMIC SPINS  :
  -0.0022223  -0.0022223  -0.0022223  -0.0022223   0.8201767   0.8201770
   0.8201770   0.8201768   0.0910227   0.0910227   0.0910227   0.0910227
   0.0910227   0.0910227   0.0910227   0.0910227
 TTTTTTTTTTTTTTTTTTTTTTTTTTTTTT MOQGAD      TELAPSE      293.49 TCPU      291.78
 TTTTTTTTTTTTTTTTTTTTTTTTTTTTTT SHELLXN     TELAPSE      535.33 TCPU      533.01
 TTTTTTTTTTTTTTTTTTTTTTTTTTTTTT MONMO3      TELAPSE      585.49 TCPU      583.18
 NUMERICALLY INTEGRATED DENSITY     68.0004030070     64.0003944829
 TTTTTTTTTTTTTTTTTTTTTTTTTTTTTT NUMDFT      TELAPSE      587.00 TCPU      584.68
 CYC   1 ETOT(AU) -9.191920258047E+02 DETOT -4.10E+00 tst  0.00E+00 PX  1.00E+00
 CYCLE  1 WAVE FUNCTION SAVED IN FORTRAN UNIT 79
 TTTTTTTTTTTTTTTTTTTTTTTTTTTTTT FDIK        TELAPSE      587.14 TCPU      584.77
 SPIN LOCKING: NO ENERGY GAP COMPUTED
 TTTTTTTTTTTTTTTTTTTTTTTTTTTTTT PDIG        TELAPSE      587.25 TCPU      584.87
 CHARGE NORMALIZATION FACTOR   0.99988164
 TOTAL ATOMIC CHARGES:
   0.1421063   0.1421063   0.1421063   0.1421063  17.8510675  17.8510699
  17.8510699  17.8510236   7.5034296   7.5034296   7.5034296   7.5034296
   7.5034064   7.5034064   7.5034064   7.5034064
 SUMMED SPIN DENSITY           3.98390342
 TOTAL ATOMIC SPINS  :
  -0.0014589  -0.0014589  -0.0014589  -0.0014589   0.7614983   0.7614359
   0.7614359   0.7614011   0.1180140   0.1180140   0.1180140   0.1180140
   0.1179780   0.1179780   0.1179780   0.1179780
 TTTTTTTTTTTTTTTTTTTTTTTTTTTTTT MOQGAD      TELAPSE      587.27 TCPU      584.90
 TTTTTTTTTTTTTTTTTTTTTTTTTTTTTT SHELLXN     TELAPSE      828.12 TCPU      825.78
 TTTTTTTTTTTTTTTTTTTTTTTTTTTTTT MONMO3      TELAPSE      879.19 TCPU      876.87
 NUMERICALLY INTEGRATED DENSITY     67.9923768606     64.0084716213
 TTTTTTTTTTTTTTTTTTTTTTTTTTTTTT NUMDFT      TELAPSE      880.56 TCPU      878.24
 CYC   2 ETOT(AU) -9.197685564740E+02 DETOT -5.77E-01 tst  1.98E-03 PX  9.80E-02
 CYCLE  2 WAVE FUNCTION SAVED IN FORTRAN UNIT 79
 TTTTTTTTTTTTTTTTTTTTTTTTTTTTTT FDIK        TELAPSE      880.73 TCPU      878.38
 SPIN LOCKING: NO ENERGY GAP COMPUTED
 TTTTTTTTTTTTTTTTTTTTTTTTTTTTTT PDIG        TELAPSE      880.80 TCPU      878.45
 CHARGE NORMALIZATION FACTOR   1.00000000
 TOTAL ATOMIC CHARGES:
   0.1496703   0.1496703   0.1496703   0.1496703  17.9321985  17.9322109
  17.9322109  17.9322513   7.4590469   7.4590469   7.4590469   7.4590469
   7.4590648   7.4590648   7.4590648   7.4590648
 SUMMED SPIN DENSITY           4.00000000
 TOTAL ATOMIC SPINS  :
  -0.0011166  -0.0011166  -0.0011166  -0.0011166   0.7257222   0.7257351
   0.7257351   0.7257015   0.1377103   0.1377103   0.1377103   0.1377103
   0.1376828   0.1376828   0.1376828   0.1376828
 TTTTTTTTTTTTTTTTTTTTTTTTTTTTTT MOQGAD      TELAPSE      880.83 TCPU      878.48
 TTTTTTTTTTTTTTTTTTTTTTTTTTTTTT SHELLXN     TELAPSE     1121.78 TCPU     1119.35
 TTTTTTTTTTTTTTTTTTTTTTTTTTTTTT MONMO3      TELAPSE     1172.90 TCPU     1170.46
 NUMERICALLY INTEGRATED DENSITY     68.0004398323     64.0004408537
 TTTTTTTTTTTTTTTTTTTTTTTTTTTTTT NUMDFT      TELAPSE     1174.26 TCPU     1171.83
 CYC   3 ETOT(AU) -9.200505986032E+02 DETOT -2.82E-01 tst  1.33E-03 PX  6.45E-02
 CYCLE  3 WAVE FUNCTION SAVED IN FORTRAN UNIT 79
 TTTTTTTTTTTTTTTTTTTTTTTTTTTTTT FDIK        TELAPSE     1174.43 TCPU     1171.97
 SPIN LOCKING: NO ENERGY GAP COMPUTED
 TTTTTTTTTTTTTTTTTTTTTTTTTTTTTT PDIG        TELAPSE     1174.51 TCPU     1172.05
 CHARGE NORMALIZATION FACTOR   1.00000000
 TOTAL ATOMIC CHARGES:
   0.1560854   0.1560854   0.1560854   0.1560854  17.9874726  17.9875006
  17.9875006  17.9874880   7.4282096   7.4282096   7.4282096   7.4282096
   7.4282146   7.4282146   7.4282146   7.4282146
 SUMMED SPIN DENSITY           4.00000000
 TOTAL ATOMIC SPINS  :
  -0.0010380  -0.0010380  -0.0010380  -0.0010380   0.6994241   0.6994241
   0.6994241   0.6994461   0.1508027   0.1508027   0.1508027   0.1508027
   0.1508057   0.1508057   0.1508057   0.1508057
 TTTTTTTTTTTTTTTTTTTTTTTTTTTTTT MOQGAD      TELAPSE     1174.54 TCPU     1172.08
 TTTTTTTTTTTTTTTTTTTTTTTTTTTTTT SHELLXN     TELAPSE     1415.39 TCPU     1412.98
 TTTTTTTTTTTTTTTTTTTTTTTTTTTTTT MONMO3      TELAPSE     1466.40 TCPU     1463.99
 NUMERICALLY INTEGRATED DENSITY     68.0004496020     64.0004516994
 TTTTTTTTTTTTTTTTTTTTTTTTTTTTTT NUMDFT      TELAPSE     1467.77 TCPU     1465.36
 CYC   4 ETOT(AU) -9.201779838539E+02 DETOT -1.27E-01 tst  1.97E-04 PX  4.26E-02
 CYCLE  4 WAVE FUNCTION SAVED IN FORTRAN UNIT 79
 TTTTTTTTTTTTTTTTTTTTTTTTTTTTTT FDIK        TELAPSE     1467.91 TCPU     1465.49
 SPIN LOCKING: NO ENERGY GAP COMPUTED
 TTTTTTTTTTTTTTTTTTTTTTTTTTTTTT PDIG        TELAPSE     1468.20 TCPU     1465.77
 CHARGE NORMALIZATION FACTOR   1.00000000
 TOTAL ATOMIC CHARGES:
   0.1611671   0.1611671   0.1611671   0.1611671  18.0204685  18.0204722
  18.0204722  18.0204658   7.4091803   7.4091803   7.4091803   7.4091803
   7.4091829   7.4091829   7.4091829   7.4091829
 SUMMED SPIN DENSITY           4.00000000
 TOTAL ATOMIC SPINS  :
  -0.0010608  -0.0010608  -0.0010608  -0.0010608   0.6846931   0.6846996
   0.6846996   0.6846972   0.1581852   0.1581852   0.1581852   0.1581852
   0.1581783   0.1581783   0.1581783   0.1581783
 TTTTTTTTTTTTTTTTTTTTTTTTTTTTTT MOQGAD      TELAPSE     1468.23 TCPU     1465.80
 TTTTTTTTTTTTTTTTTTTTTTTTTTTTTT SHELLXN     TELAPSE     1709.14 TCPU     1706.66
 TTTTTTTTTTTTTTTTTTTTTTTTTTTTTT MONMO3      TELAPSE     1760.14 TCPU     1757.66
 NUMERICALLY INTEGRATED DENSITY     68.0004562386     64.0004588928
 TTTTTTTTTTTTTTTTTTTTTTTTTTTTTT NUMDFT      TELAPSE     1761.52 TCPU     1759.03
 CYC   5 ETOT(AU) -9.202413159927E+02 DETOT -6.33E-02 tst  9.55E-05 PX  3.02E-02
 CYCLE  5 WAVE FUNCTION SAVED IN FORTRAN UNIT 79
 TTTTTTTTTTTTTTTTTTTTTTTTTTTTTT FDIK        TELAPSE     1761.66 TCPU     1759.17
 SPIN LOCKING: NO ENERGY GAP COMPUTED
 TTTTTTTTTTTTTTTTTTTTTTTTTTTTTT PDIG        TELAPSE     1761.76 TCPU     1759.27
 CHARGE NORMALIZATION FACTOR   1.00000000
 TOTAL ATOMIC CHARGES:
   0.1650674   0.1650674   0.1650674   0.1650674  18.0388857  18.0388827
  18.0388827  18.0388745   7.3980279   7.3980279   7.3980279   7.3980279
   7.3980233   7.3980233   7.3980233   7.3980233
 SUMMED SPIN DENSITY           4.00000000
 TOTAL ATOMIC SPINS  :
  -0.0011720  -0.0011720  -0.0011720  -0.0011720   0.6772992   0.6772994
   0.6772994   0.6773002   0.1619338   0.1619338   0.1619338   0.1619338
   0.1619386   0.1619386   0.1619386   0.1619386
 TTTTTTTTTTTTTTTTTTTTTTTTTTTTTT MOQGAD      TELAPSE     1761.78 TCPU     1759.30
 TTTTTTTTTTTTTTTTTTTTTTTTTTTTTT SHELLXN     TELAPSE     2002.81 TCPU     2000.17
 TTTTTTTTTTTTTTTTTTTTTTTTTTTTTT MONMO3      TELAPSE     2053.81 TCPU     2051.12
 NUMERICALLY INTEGRATED DENSITY     68.0004608315     64.0004637901
 TTTTTTTTTTTTTTTTTTTTTTTTTTTTTT NUMDFT      TELAPSE     2055.18 TCPU     2052.49
 CYC   6 ETOT(AU) -9.202744517917E+02 DETOT -3.31E-02 tst  5.09E-05 PX  2.15E-02
 CYCLE  6 WAVE FUNCTION SAVED IN FORTRAN UNIT 79
 TTTTTTTTTTTTTTTTTTTTTTTTTTTTTT FDIK        TELAPSE     2055.34 TCPU     2052.63
 SPIN LOCKING: NO ENERGY GAP COMPUTED
 TTTTTTTTTTTTTTTTTTTTTTTTTTTTTT PDIG        TELAPSE     2055.42 TCPU     2052.72
 CHARGE NORMALIZATION FACTOR   1.00000000
 TOTAL ATOMIC CHARGES:
   0.1679603   0.1679603   0.1679603   0.1679603  18.0483461  18.0483451
  18.0483451  18.0483399   7.3918486   7.3918486   7.3918486   7.3918486
   7.3918470   7.3918470   7.3918470   7.3918470
 SUMMED SPIN DENSITY           4.00000000
 TOTAL ATOMIC SPINS  :
  -0.0013098  -0.0013098  -0.0013098  -0.0013098   0.6741246   0.6741263
   0.6741263   0.6741244   0.1635927   0.1635927   0.1635927   0.1635927
   0.1635917   0.1635917   0.1635917   0.1635917
 TTTTTTTTTTTTTTTTTTTTTTTTTTTTTT MOQGAD      TELAPSE     2055.45 TCPU     2052.75
 TTTTTTTTTTTTTTTTTTTTTTTTTTTTTT SHELLXN     TELAPSE     2296.41 TCPU     2293.58
 TTTTTTTTTTTTTTTTTTTTTTTTTTTTTT MONMO3      TELAPSE     2347.34 TCPU     2344.50
 NUMERICALLY INTEGRATED DENSITY     68.0004640777     64.0004672024
 TTTTTTTTTTTTTTTTTTTTTTTTTTTTTT NUMDFT      TELAPSE     2348.71 TCPU     2345.87
 CYC   7 ETOT(AU) -9.202927130054E+02 DETOT -1.83E-02 tst  2.79E-05 PX  1.54E-02
 CYCLE  7 WAVE FUNCTION SAVED IN FORTRAN UNIT 79
 TTTTTTTTTTTTTTTTTTTTTTTTTTTTTT FDIK        TELAPSE     2348.87 TCPU     2346.01
 SPIN LOCKING: NO ENERGY GAP COMPUTED
 TTTTTTTTTTTTTTTTTTTTTTTTTTTTTT PDIG        TELAPSE     2348.96 TCPU     2346.10
 CHARGE NORMALIZATION FACTOR   1.00000000
 TOTAL ATOMIC CHARGES:
   0.1700635   0.1700635   0.1700635   0.1700635  18.0525288  18.0525324
  18.0525324  18.0525303   7.3887032   7.3887032   7.3887032   7.3887032
   7.3887023   7.3887023   7.3887023   7.3887023
 SUMMED SPIN DENSITY           4.00000000
 TOTAL ATOMIC SPINS  :
  -0.0014683  -0.0014683  -0.0014683  -0.0014683   0.6732705   0.6732695
   0.6732695   0.6732750   0.1640982   0.1640982   0.1640982   0.1640982
   0.1640989   0.1640989   0.1640989   0.1640989
 TTTTTTTTTTTTTTTTTTTTTTTTTTTTTT MOQGAD      TELAPSE     2348.99 TCPU     2346.13
 TTTTTTTTTTTTTTTTTTTTTTTTTTTTTT SHELLXN     TELAPSE     2589.85 TCPU     2587.03
 TTTTTTTTTTTTTTTTTTTTTTTTTTTTTT MONMO3      TELAPSE     2640.94 TCPU     2638.13
 NUMERICALLY INTEGRATED DENSITY     68.0004664112     64.0004696231
 TTTTTTTTTTTTTTTTTTTTTTTTTTTTTT NUMDFT      TELAPSE     2642.32 TCPU     2639.50
 CYC   8 ETOT(AU) -9.203032598483E+02 DETOT -1.05E-02 tst  1.65E-05 PX  1.11E-02
 CYCLE  8 WAVE FUNCTION SAVED IN FORTRAN UNIT 79
 TTTTTTTTTTTTTTTTTTTTTTTTTTTTTT FDIK        TELAPSE     2642.50 TCPU     2639.67
 SPIN LOCKING: NO ENERGY GAP COMPUTED
 TTTTTTTTTTTTTTTTTTTTTTTTTTTTTT PDIG        TELAPSE     2642.58 TCPU     2639.74
 CHARGE NORMALIZATION FACTOR   1.00000000
 TOTAL ATOMIC CHARGES:
   0.1715550   0.1715550   0.1715550   0.1715550  18.0536470  18.0536462
  18.0536462  18.0536447   7.3874000   7.3874000   7.3874000   7.3874000
   7.3873990   7.3873990   7.3873990   7.3873990
 SUMMED SPIN DENSITY           4.00000000
 TOTAL ATOMIC SPINS  :
  -0.0016224  -0.0016224  -0.0016224  -0.0016224   0.6736454   0.6736427
   0.6736427   0.6736469   0.1639887   0.1639887   0.1639887   0.1639887
   0.1639892   0.1639892   0.1639892   0.1639892
 TTTTTTTTTTTTTTTTTTTTTTTTTTTTTT MOQGAD      TELAPSE     2642.61 TCPU     2639.77
 TTTTTTTTTTTTTTTTTTTTTTTTTTTTTT SHELLXN     TELAPSE     2883.79 TCPU     2880.90
 TTTTTTTTTTTTTTTTTTTTTTTTTTTTTT MONMO3      TELAPSE     2934.49 TCPU     2931.59
 NUMERICALLY INTEGRATED DENSITY     68.0004681129     64.0004713657
 TTTTTTTTTTTTTTTTTTTTTTTTTTTTTT NUMDFT      TELAPSE     2935.86 TCPU     2932.96
 CYC   9 ETOT(AU) -9.203096293765E+02 DETOT -6.37E-03 tst  1.03E-05 PX  8.06E-03
 CYCLE  9 WAVE FUNCTION SAVED IN FORTRAN UNIT 79
 TTTTTTTTTTTTTTTTTTTTTTTTTTTTTT FDIK        TELAPSE     2936.02 TCPU     2933.09
 SPIN LOCKING: NO ENERGY GAP COMPUTED
 TTTTTTTTTTTTTTTTTTTTTTTTTTTTTT PDIG        TELAPSE     2936.12 TCPU     2933.19
 CHARGE NORMALIZATION FACTOR   1.00000000
 TOTAL ATOMIC CHARGES:
   0.1725864   0.1725864   0.1725864   0.1725864  18.0530017  18.0530033
  18.0530033  18.0530010   7.3872059   7.3872059   7.3872059   7.3872059
   7.3872054   7.3872054   7.3872054   7.3872054
 SUMMED SPIN DENSITY           4.00000000
 TOTAL ATOMIC SPINS  :
  -0.0017752  -0.0017752  -0.0017752  -0.0017752   0.6746396   0.6746385
   0.6746385   0.6746407   0.1635679   0.1635679   0.1635679   0.1635679
   0.1635680   0.1635680   0.1635680   0.1635680
 TTTTTTTTTTTTTTTTTTTTTTTTTTTTTT MOQGAD      TELAPSE     2936.15 TCPU     2933.22
 TTTTTTTTTTTTTTTTTTTTTTTTTTTTTT SHELLXN     TELAPSE     3177.46 TCPU     3174.38
 TTTTTTTTTTTTTTTTTTTTTTTTTTTTTT MONMO3      TELAPSE     3227.95 TCPU     3224.86
 NUMERICALLY INTEGRATED DENSITY     68.0004693701     64.0004726330
 TTTTTTTTTTTTTTTTTTTTTTTTTTTTTT NUMDFT      TELAPSE     3229.33 TCPU     3226.23
 CYC  10 ETOT(AU) -9.203136553922E+02 DETOT -4.03E-03 tst  6.57E-06 PX  5.88E-03
 CYCLE 10 WAVE FUNCTION SAVED IN FORTRAN UNIT 79
 TTTTTTTTTTTTTTTTTTTTTTTTTTTTTT FDIK        TELAPSE     3229.47 TCPU     3226.34
 SPIN LOCKING: NO ENERGY GAP COMPUTED
 TTTTTTTTTTTTTTTTTTTTTTTTTTTTTT PDIG        TELAPSE     3229.56 TCPU     3226.43
 CHARGE NORMALIZATION FACTOR   1.00000000
 TOTAL ATOMIC CHARGES:
   0.1732726   0.1732726   0.1732726   0.1732726  18.0513733  18.0513739
  18.0513739  18.0513716   7.3876776   7.3876776   7.3876776   7.3876776
   7.3876766   7.3876766   7.3876766   7.3876766
 SUMMED SPIN DENSITY           4.00000000
 TOTAL ATOMIC SPINS  :
  -0.0019183  -0.0019183  -0.0019183  -0.0019183   0.6759155   0.6759140
   0.6759140   0.6759178   0.1630017   0.1630017   0.1630017   0.1630017
   0.1630013   0.1630013   0.1630013   0.1630013
 TTTTTTTTTTTTTTTTTTTTTTTTTTTTTT MOQGAD      TELAPSE     3229.59 TCPU     3226.46
 TTTTTTTTTTTTTTTTTTTTTTTTTTTTTT SHELLXN     TELAPSE     3470.47 TCPU     3467.36
 TTTTTTTTTTTTTTTTTTTTTTTTTTTTTT MONMO3      TELAPSE     3521.36 TCPU     3518.25
 NUMERICALLY INTEGRATED DENSITY     68.0004703084     64.0004735636
 TTTTTTTTTTTTTTTTTTTTTTTTTTTTTT NUMDFT      TELAPSE     3522.73 TCPU     3519.62
 CYC  11 ETOT(AU) -9.203163226412E+02 DETOT -2.67E-03 tst  5.92E-06 PX  4.50E-03
 CYCLE 11 WAVE FUNCTION SAVED IN FORTRAN UNIT 79
 TTTTTTTTTTTTTTTTTTTTTTTTTTTTTT FDIK        TELAPSE     3522.88 TCPU     3519.74
 SPIN LOCKING: NO ENERGY GAP COMPUTED
 TTTTTTTTTTTTTTTTTTTTTTTTTTTTTT PDIG        TELAPSE     3522.97 TCPU     3519.82
 CHARGE NORMALIZATION FACTOR   1.00000000
 TOTAL ATOMIC CHARGES:
   0.1737112   0.1737112   0.1737112   0.1737112  18.0492303  18.0492314
  18.0492314  18.0492316   7.3885290   7.3885290   7.3885290   7.3885290
   7.3885286   7.3885286   7.3885286   7.3885286
 SUMMED SPIN DENSITY           4.00000000
 TOTAL ATOMIC SPINS  :
  -0.0020551  -0.0020551  -0.0020551  -0.0020551   0.6773148   0.6773143
   0.6773143   0.6773140   0.1623704   0.1623704   0.1623704   0.1623704
   0.1623703   0.1623703   0.1623703   0.1623703
 TTTTTTTTTTTTTTTTTTTTTTTTTTTTTT MOQGAD      TELAPSE     3522.99 TCPU     3519.85
 TTTTTTTTTTTTTTTTTTTTTTTTTTTTTT SHELLXN     TELAPSE     3763.82 TCPU     3760.73
 TTTTTTTTTTTTTTTTTTTTTTTTTTTTTT MONMO3      TELAPSE     3814.92 TCPU     3811.84
 NUMERICALLY INTEGRATED DENSITY     68.0004710149     64.0004742518
 TTTTTTTTTTTTTTTTTTTTTTTTTTTTTT NUMDFT      TELAPSE     3816.32 TCPU     3813.23
 CYC  12 ETOT(AU) -9.203181744169E+02 DETOT -1.85E-03 tst  5.62E-06 PX  4.39E-03
 CYCLE 12 WAVE FUNCTION SAVED IN FORTRAN UNIT 79
 TTTTTTTTTTTTTTTTTTTTTTTTTTTTTT FDIK        TELAPSE     3816.47 TCPU     3813.37
 SPIN LOCKING: NO ENERGY GAP COMPUTED
 TTTTTTTTTTTTTTTTTTTTTTTTTTTTTT PDIG        TELAPSE     3816.56 TCPU     3813.45
 CHARGE NORMALIZATION FACTOR   1.00000000
 TOTAL ATOMIC CHARGES:
   0.1739663   0.1739663   0.1739663   0.1739663  18.0468595  18.0468574
  18.0468574  18.0468586   7.3895880   7.3895880   7.3895880   7.3895880
   7.3895875   7.3895875   7.3895875   7.3895875
 SUMMED SPIN DENSITY           4.00000000
 TOTAL ATOMIC SPINS  :
  -0.0021779  -0.0021779  -0.0021779  -0.0021779   0.6787345   0.6787378
   0.6787378   0.6787362   0.1617206   0.1617206   0.1617206   0.1617206
   0.1617206   0.1617206   0.1617206   0.1617206
 TTTTTTTTTTTTTTTTTTTTTTTTTTTTTT MOQGAD      TELAPSE     3816.59 TCPU     3813.48
 TTTTTTTTTTTTTTTTTTTTTTTTTTTTTT SHELLXN     TELAPSE     4057.39 TCPU     4054.33
 TTTTTTTTTTTTTTTTTTTTTTTTTTTTTT MONMO3      TELAPSE     4108.69 TCPU     4105.64
 NUMERICALLY INTEGRATED DENSITY     68.0004715507     64.0004747637
 TTTTTTTTTTTTTTTTTTTTTTTTTTTTTT NUMDFT      TELAPSE     4110.09 TCPU     4107.04
 CYC  13 ETOT(AU) -9.203195175540E+02 DETOT -1.34E-03 tst  5.07E-06 PX  4.19E-03
 CYCLE 13 WAVE FUNCTION SAVED IN FORTRAN UNIT 79
 TTTTTTTTTTTTTTTTTTTTTTTTTTTTTT FDIK        TELAPSE     4110.24 TCPU     4107.14
 SPIN LOCKING: NO ENERGY GAP COMPUTED
 TTTTTTTTTTTTTTTTTTTTTTTTTTTTTT PDIG        TELAPSE     4110.34 TCPU     4107.24
 CHARGE NORMALIZATION FACTOR   1.00000000
 TOTAL ATOMIC CHARGES:
   0.1740928   0.1740928   0.1740928   0.1740928  18.0444247  18.0444254
  18.0444254  18.0444243   7.3907416   7.3907416   7.3907416   7.3907416
   7.3907407   7.3907407   7.3907407   7.3907407
 SUMMED SPIN DENSITY           4.00000000
 TOTAL ATOMIC SPINS  :
  -0.0022950  -0.0022950  -0.0022950  -0.0022950   0.6801330   0.6801346
   0.6801346   0.6801341   0.1610803   0.1610803   0.1610803   0.1610803
   0.1610806   0.1610806   0.1610806   0.1610806
 TTTTTTTTTTTTTTTTTTTTTTTTTTTTTT MOQGAD      TELAPSE     4110.37 TCPU     4107.27
 TTTTTTTTTTTTTTTTTTTTTTTTTTTTTT SHELLXN     TELAPSE     4351.40 TCPU     4348.14
 TTTTTTTTTTTTTTTTTTTTTTTTTTTTTT MONMO3      TELAPSE     4403.07 TCPU     4399.80
 NUMERICALLY INTEGRATED DENSITY     68.0004719602     64.0004751466
 TTTTTTTTTTTTTTTTTTTTTTTTTTTTTT NUMDFT      TELAPSE     4404.44 TCPU     4401.17
 CYC  14 ETOT(AU) -9.203205293693E+02 DETOT -1.01E-03 tst  4.45E-06 PX  3.96E-03
 CYCLE 14 WAVE FUNCTION SAVED IN FORTRAN UNIT 79
 TTTTTTTTTTTTTTTTTTTTTTTTTTTTTT FDIK        TELAPSE     4404.60 TCPU     4401.29
 SPIN LOCKING: NO ENERGY GAP COMPUTED
 TTTTTTTTTTTTTTTTTTTTTTTTTTTTTT PDIG        TELAPSE     4404.69 TCPU     4401.39
 CHARGE NORMALIZATION FACTOR   1.00000000
 TOTAL ATOMIC CHARGES:
   0.1741272   0.1741272   0.1741272   0.1741272  18.0420285  18.0420292
  18.0420292  18.0420296   7.3919222   7.3919222   7.3919222   7.3919222
   7.3919215   7.3919215   7.3919215   7.3919215
 SUMMED SPIN DENSITY           4.00000000
 TOTAL ATOMIC SPINS  :
  -0.0024011  -0.0024011  -0.0024011  -0.0024011   0.6814787   0.6814786
   0.6814786   0.6814784   0.1604612   0.1604612   0.1604612   0.1604612
   0.1604613   0.1604613   0.1604613   0.1604613
 TTTTTTTTTTTTTTTTTTTTTTTTTTTTTT MOQGAD      TELAPSE     4404.72 TCPU     4401.42
 TTTTTTTTTTTTTTTTTTTTTTTTTTTTTT SHELLXN     TELAPSE     4645.57 TCPU     4642.31
 TTTTTTTTTTTTTTTTTTTTTTTTTTTTTT MONMO3      TELAPSE     4696.61 TCPU     4693.36
 NUMERICALLY INTEGRATED DENSITY     68.0004722744     64.0004754340
 TTTTTTTTTTTTTTTTTTTTTTTTTTTTTT NUMDFT      TELAPSE     4697.98 TCPU     4694.74
 CYC  15 ETOT(AU) -9.203213155299E+02 DETOT -7.86E-04 tst  3.85E-06 PX  3.71E-03
 CYCLE 15 WAVE FUNCTION SAVED IN FORTRAN UNIT 79
 MODIFIED BROYDEN: MIX%=  60 W0=  1.000000000000E-02 W=  7.759865612098E+00
 TTTTTTTTTTTTTTTTTTTTTTTTTTTTTT FDIK        TELAPSE     4698.16 TCPU     4694.90
 SPIN LOCKING: NO ENERGY GAP COMPUTED
 TTTTTTTTTTTTTTTTTTTTTTTTTTTTTT PDIG        TELAPSE     4698.24 TCPU     4694.97
 CHARGE NORMALIZATION FACTOR   1.00000000
 TOTAL ATOMIC CHARGES:
   0.1738475   0.1738475   0.1738475   0.1738475  18.0294016  18.0294101
  18.0294101  18.0294068   7.3983734   7.3983734   7.3983734   7.3983734
   7.3983720   7.3983720   7.3983720   7.3983720
 SUMMED SPIN DENSITY           4.00000000
 TOTAL ATOMIC SPINS  :
  -0.0029633  -0.0029633  -0.0029633  -0.0029633   0.6883428   0.6883371
   0.6883371   0.6883385   0.1573128   0.1573128   0.1573128   0.1573128
   0.1573116   0.1573116   0.1573116   0.1573116
 TTTTTTTTTTTTTTTTTTTTTTTTTTTTTT MOQGAD      TELAPSE     4698.27 TCPU     4695.00
 TTTTTTTTTTTTTTTTTTTTTTTTTTTTTT SHELLXN     TELAPSE     4939.05 TCPU     4935.83
 TTTTTTTTTTTTTTTTTTTTTTTTTTTTTT MONMO3      TELAPSE     4990.17 TCPU     4986.97
 NUMERICALLY INTEGRATED DENSITY     68.0004734727     64.0004764503
 TTTTTTTTTTTTTTTTTTTTTTTTTTTTTT NUMDFT      TELAPSE     4991.55 TCPU     4988.34
 CYC  16 ETOT(AU) -9.203239479636E+02 DETOT -2.63E-03 tst  9.95E-05 PX  1.90E-02
 CYCLE 16 WAVE FUNCTION SAVED IN FORTRAN UNIT 79
 MODIFIED BROYDEN: MIX%=  60 W0=  1.000000000000E-02 W=  1.818240218542E+01
 TTTTTTTTTTTTTTTTTTTTTTTTTTTTTT FDIK        TELAPSE     4991.73 TCPU     4988.50
 SPIN LOCKING: NO ENERGY GAP COMPUTED
 TTTTTTTTTTTTTTTTTTTTTTTTTTTTTT PDIG        TELAPSE     4991.83 TCPU     4988.59
 CHARGE NORMALIZATION FACTOR   1.00000000
 TOTAL ATOMIC CHARGES:
   0.1744381   0.1744381   0.1744381   0.1744381  18.0324524  18.0324528
  18.0324528  18.0324526   7.3965548   7.3965548   7.3965548   7.3965548
   7.3965544   7.3965544   7.3965544   7.3965544
 SUMMED SPIN DENSITY           4.00000000
 TOTAL ATOMIC SPINS  :
  -0.0028738  -0.0028738  -0.0028738  -0.0028738   0.6863743   0.6863748
   0.6863748   0.6863746   0.1582496   0.1582496   0.1582496   0.1582496
   0.1582496   0.1582496   0.1582496   0.1582496
 TTTTTTTTTTTTTTTTTTTTTTTTTTTTTT MOQGAD      TELAPSE     4991.86 TCPU     4988.62
 TTTTTTTTTTTTTTTTTTTTTTTTTTTTTT SHELLXN     TELAPSE     5232.67 TCPU     5229.48
 TTTTTTTTTTTTTTTTTTTTTTTTTTTTTT MONMO3      TELAPSE     5283.65 TCPU     5280.47
 NUMERICALLY INTEGRATED DENSITY     68.0004736506     64.0004766375
 TTTTTTTTTTTTTTTTTTTTTTTTTTTTTT NUMDFT      TELAPSE     5285.03 TCPU     5281.85
 CYC  17 ETOT(AU) -9.203236032377E+02 DETOT  3.45E-04 tst  4.01E-06 PX  4.02E-03
 CYCLE 17 WAVE FUNCTION SAVED IN FORTRAN UNIT 79
 MODIFIED BROYDEN: MIX%=  60 W0=  1.000000000000E-02 W=  1.597890942640E+01
 TTTTTTTTTTTTTTTTTTTTTTTTTTTTTT FDIK        TELAPSE     5285.27 TCPU     5282.07
 SPIN LOCKING: NO ENERGY GAP COMPUTED
 TTTTTTTTTTTTTTTTTTTTTTTTTTTTTT PDIG        TELAPSE     5285.34 TCPU     5282.14
 CHARGE NORMALIZATION FACTOR   1.00000000
 TOTAL ATOMIC CHARGES:
   0.1744402   0.1744402   0.1744402   0.1744402  18.0324676  18.0324698
  18.0324698  18.0324680   7.3965457   7.3965457   7.3965457   7.3965457
   7.3965453   7.3965453   7.3965453   7.3965453
 SUMMED SPIN DENSITY           4.00000000
 TOTAL ATOMIC SPINS  :
  -0.0028806  -0.0028806  -0.0028806  -0.0028806   0.6864889   0.6864889
   0.6864889   0.6864891   0.1581958   0.1581958   0.1581958   0.1581958
   0.1581959   0.1581959   0.1581959   0.1581959
 TTTTTTTTTTTTTTTTTTTTTTTTTTTTTT MOQGAD      TELAPSE     5285.37 TCPU     5282.17
 TTTTTTTTTTTTTTTTTTTTTTTTTTTTTT SHELLXN     TELAPSE     5526.48 TCPU     5523.02
 TTTTTTTTTTTTTTTTTTTTTTTTTTTTTT MONMO3      TELAPSE     5577.18 TCPU     5573.69
 NUMERICALLY INTEGRATED DENSITY     68.0004736623     64.0004766563
 TTTTTTTTTTTTTTTTTTTTTTTTTTTTTT NUMDFT      TELAPSE     5578.55 TCPU     5575.05
 CYC  18 ETOT(AU) -9.203236234969E+02 DETOT -2.03E-05 tst  1.29E-08 PX  2.61E-04
 CYCLE 18 WAVE FUNCTION SAVED IN FORTRAN UNIT 79
 MODIFIED BROYDEN: MIX%=  60 W0=  1.000000000000E-02 W=  1.618213807752E+01
 TTTTTTTTTTTTTTTTTTTTTTTTTTTTTT FDIK        TELAPSE     5578.71 TCPU     5575.18
 SPIN LOCKING: NO ENERGY GAP COMPUTED
 TTTTTTTTTTTTTTTTTTTTTTTTTTTTTT PDIG        TELAPSE     5578.79 TCPU     5575.26
 CHARGE NORMALIZATION FACTOR   1.00000000
 TOTAL ATOMIC CHARGES:
   0.1743416   0.1743416   0.1743416   0.1743416  18.0316292  18.0316302
  18.0316302  18.0316291   7.3970146   7.3970146   7.3970146   7.3970146
   7.3970141   7.3970141   7.3970141   7.3970141
 SUMMED SPIN DENSITY           4.00000000
 TOTAL ATOMIC SPINS  :
  -0.0029096  -0.0029096  -0.0029096  -0.0029096   0.6872627   0.6872626
   0.6872626   0.6872631   0.1578234   0.1578234   0.1578234   0.1578234
   0.1578235   0.1578235   0.1578235   0.1578235
 TTTTTTTTTTTTTTTTTTTTTTTTTTTTTT MOQGAD      TELAPSE     5578.82 TCPU     5575.29
 TTTTTTTTTTTTTTTTTTTTTTTTTTTTTT SHELLXN     TELAPSE     5819.60 TCPU     5816.10
 TTTTTTTTTTTTTTTTTTTTTTTTTTTTTT MONMO3      TELAPSE     5870.67 TCPU     5867.19
 NUMERICALLY INTEGRATED DENSITY     68.0004736358     64.0004766383
 TTTTTTTTTTTTTTTTTTTTTTTTTTTTTT NUMDFT      TELAPSE     5872.04 TCPU     5868.56
 CYC  19 ETOT(AU) -9.203237306859E+02 DETOT -1.07E-04 tst  4.76E-07 PX  1.37E-03
 CYCLE 19 WAVE FUNCTION SAVED IN FORTRAN UNIT 79
 MODIFIED BROYDEN: MIX%=  60 W0=  1.000000000000E-02 W=  1.640712083567E+01
 TTTTTTTTTTTTTTTTTTTTTTTTTTTTTT FDIK        TELAPSE     5872.32 TCPU     5868.80
 SPIN LOCKING: NO ENERGY GAP COMPUTED
 TTTTTTTTTTTTTTTTTTTTTTTTTTTTTT PDIG        TELAPSE     5872.39 TCPU     5868.87
 CHARGE NORMALIZATION FACTOR   1.00000000
 TOTAL ATOMIC CHARGES:
   0.1744080   0.1744080   0.1744080   0.1744080  18.0320801  18.0320819
  18.0320819  18.0320802   7.3967557   7.3967557   7.3967557   7.3967557
   7.3967552   7.3967552   7.3967552   7.3967552
 SUMMED SPIN DENSITY           4.00000000
 TOTAL ATOMIC SPINS  :
  -0.0028918  -0.0028918  -0.0028918  -0.0028918   0.6868143   0.6868148
   0.6868148   0.6868147   0.1580385   0.1580385   0.1580385   0.1580385
   0.1580386   0.1580386   0.1580386   0.1580386
 TTTTTTTTTTTTTTTTTTTTTTTTTTTTTT MOQGAD      TELAPSE     5872.42 TCPU     5868.90
 TTTTTTTTTTTTTTTTTTTTTTTTTTTTTT SHELLXN     TELAPSE     6113.18 TCPU     6109.69
 TTTTTTTTTTTTTTTTTTTTTTTTTTTTTT MONMO3      TELAPSE     6164.22 TCPU     6160.74
 NUMERICALLY INTEGRATED DENSITY     68.0004736506     64.0004766426
 TTTTTTTTTTTTTTTTTTTTTTTTTTTTTT NUMDFT      TELAPSE     6165.61 TCPU     6162.12
 CYC  20 ETOT(AU) -9.203236623142E+02 DETOT  6.84E-05 tst  1.64E-07 PX  8.37E-04
 CYCLE 20 WAVE FUNCTION SAVED IN FORTRAN UNIT 79
 MODIFIED BROYDEN: MIX%=  60 W0=  1.000000000000E-02 W=  1.602070505744E+01
 TTTTTTTTTTTTTTTTTTTTTTTTTTTTTT FDIK        TELAPSE     6165.75 TCPU     6162.24
 SPIN LOCKING: NO ENERGY GAP COMPUTED
 TTTTTTTTTTTTTTTTTTTTTTTTTTTTTT PDIG        TELAPSE     6165.84 TCPU     6162.33
 CHARGE NORMALIZATION FACTOR   1.00000000
 TOTAL ATOMIC CHARGES:
   0.1736944   0.1736944   0.1736944   0.1736944  18.0273914  18.0273935
  18.0273935  18.0273934   7.3994564   7.3994564   7.3994564   7.3994564
   7.3994563   7.3994563   7.3994563   7.3994563
 SUMMED SPIN DENSITY           4.00000000
 TOTAL ATOMIC SPINS  :
  -0.0030847  -0.0030847  -0.0030847  -0.0030847   0.6916666   0.6916636
   0.6916636   0.6916645   0.1557103   0.1557103   0.1557103   0.1557103
   0.1557098   0.1557098   0.1557098   0.1557098
 TTTTTTTTTTTTTTTTTTTTTTTTTTTTTT MOQGAD      TELAPSE     6165.87 TCPU     6162.36
 TTTTTTTTTTTTTTTTTTTTTTTTTTTTTT SHELLXN     TELAPSE     6406.63 TCPU     6403.17
 TTTTTTTTTTTTTTTTTTTTTTTTTTTTTT MONMO3      TELAPSE     6457.77 TCPU     6454.32
 NUMERICALLY INTEGRATED DENSITY     68.0004734921     64.0004765914
 TTTTTTTTTTTTTTTTTTTTTTTTTTTTTT NUMDFT      TELAPSE     6459.15 TCPU     6455.70
 CYC  21 ETOT(AU) -9.203243126839E+02 DETOT -6.50E-04 tst  1.94E-05 PX  9.04E-03
 CYCLE 21 WAVE FUNCTION SAVED IN FORTRAN UNIT 79
 MODIFIED BROYDEN: MIX%=  60 W0=  1.000000000000E-02 W=  2.160018979578E+01
 TTTTTTTTTTTTTTTTTTTTTTTTTTTTTT FDIK        TELAPSE     6459.33 TCPU     6455.87
 SPIN LOCKING: NO ENERGY GAP COMPUTED
 TTTTTTTTTTTTTTTTTTTTTTTTTTTTTT PDIG        TELAPSE     6459.41 TCPU     6455.94
 CHARGE NORMALIZATION FACTOR   1.00000000
 TOTAL ATOMIC CHARGES:
   0.1721990   0.1721990   0.1721990   0.1721990  18.0179640  18.0179584
  18.0179584  18.0179593   7.4049208   7.4049208   7.4049208   7.4049208
   7.4049202   7.4049202   7.4049202   7.4049202
 SUMMED SPIN DENSITY           4.00000000
 TOTAL ATOMIC SPINS  :
  -0.0035089  -0.0035089  -0.0035089  -0.0035089   0.7013451   0.7013435
   0.7013435   0.7013369   0.1510849   0.1510849   0.1510849   0.1510849
   0.1510818   0.1510818   0.1510818   0.1510818
 TTTTTTTTTTTTTTTTTTTTTTTTTTTTTT MOQGAD      TELAPSE     6459.43 TCPU     6455.97
 TTTTTTTTTTTTTTTTTTTTTTTTTTTTTT SHELLXN     TELAPSE     6701.59 TCPU     6696.88
 TTTTTTTTTTTTTTTTTTTTTTTTTTTTTT MONMO3      TELAPSE     6751.23 TCPU     6746.52
 NUMERICALLY INTEGRATED DENSITY     68.0004731618     64.0004764677
 TTTTTTTTTTTTTTTTTTTTTTTTTTTTTT NUMDFT      TELAPSE     6752.59 TCPU     6747.89
 CYC  22 ETOT(AU) -9.203250388303E+02 DETOT -7.26E-04 tst  8.30E-05 PX  1.87E-02
 CYCLE 22 WAVE FUNCTION SAVED IN FORTRAN UNIT 79
 MODIFIED BROYDEN: MIX%=  60 W0=  1.000000000000E-02 W=  1.088579636429E+02
 TTTTTTTTTTTTTTTTTTTTTTTTTTTTTT FDIK        TELAPSE     6752.74 TCPU     6748.03
 SPIN LOCKING: NO ENERGY GAP COMPUTED
 TTTTTTTTTTTTTTTTTTTTTTTTTTTTTT PDIG        TELAPSE     6752.83 TCPU     6748.12
 CHARGE NORMALIZATION FACTOR   1.00000000
 TOTAL ATOMIC CHARGES:
   0.1714302   0.1714302   0.1714302   0.1714302  18.0111950  18.0112192
  18.0112192  18.0111999   7.4086806   7.4086806   7.4086806   7.4086806
   7.4086808   7.4086808   7.4086808   7.4086808
 SUMMED SPIN DENSITY           4.00000000
 TOTAL ATOMIC SPINS  :
  -0.0036836  -0.0036836  -0.0036836  -0.0036836   0.7050245   0.7050060
   0.7050060   0.7050237   0.1493337   0.1493337   0.1493337   0.1493337
   0.1493348   0.1493348   0.1493348   0.1493348
 TTTTTTTTTTTTTTTTTTTTTTTTTTTTTT MOQGAD      TELAPSE     6752.86 TCPU     6748.15
 TTTTTTTTTTTTTTTTTTTTTTTTTTTTTT SHELLXN     TELAPSE     6993.88 TCPU     6989.02
 TTTTTTTTTTTTTTTTTTTTTTTTTTTTTT MONMO3      TELAPSE     7045.84 TCPU     7040.98
 NUMERICALLY INTEGRATED DENSITY     68.0004728064     64.0004760584
 TTTTTTTTTTTTTTTTTTTTTTTTTTTTTT NUMDFT      TELAPSE     7047.21 TCPU     7042.35
 CYC  23 ETOT(AU) -9.203250439693E+02 DETOT -5.14E-06 tst  1.25E-05 PX  6.57E-03
 CYCLE 23 WAVE FUNCTION SAVED IN FORTRAN UNIT 79
 MODIFIED BROYDEN: MIX%=  60 W0=  1.000000000000E-02 W=  3.947725275334E+01
 TTTTTTTTTTTTTTTTTTTTTTTTTTTTTT FDIK        TELAPSE     7047.39 TCPU     7042.52
 SPIN LOCKING: NO ENERGY GAP COMPUTED
 TTTTTTTTTTTTTTTTTTTTTTTTTTTTTT PDIG        TELAPSE     7047.47 TCPU     7042.60
 CHARGE NORMALIZATION FACTOR   1.00000000
 TOTAL ATOMIC CHARGES:
   0.1717436   0.1717436   0.1717436   0.1717436  18.0148624  18.0148807
  18.0148807  18.0148648   7.4066921   7.4066921   7.4066921   7.4066921
   7.4066922   7.4066922   7.4066922   7.4066922
 SUMMED SPIN DENSITY           4.00000000
 TOTAL ATOMIC SPINS  :
  -0.0036677  -0.0036677  -0.0036677  -0.0036677   0.7037776   0.7037649
   0.7037649   0.7037761   0.1499484   0.1499484   0.1499484   0.1499484
   0.1499484   0.1499484   0.1499484   0.1499484
 TTTTTTTTTTTTTTTTTTTTTTTTTTTTTT MOQGAD      TELAPSE     7047.50 TCPU     7042.63
 TTTTTTTTTTTTTTTTTTTTTTTTTTTTTT SHELLXN     TELAPSE     7288.51 TCPU     7283.41
 TTTTTTTTTTTTTTTTTTTTTTTTTTTTTT MONMO3      TELAPSE     7339.64 TCPU     7334.55
 NUMERICALLY INTEGRATED DENSITY     68.0004730625     64.0004764359
 TTTTTTTTTTTTTTTTTTTTTTTTTTTTTT NUMDFT      TELAPSE     7341.01 TCPU     7335.92
 CYC  24 ETOT(AU) -9.203250806949E+02 DETOT -3.67E-05 tst  9.48E-07 PX  1.84E-03
 CYCLE 24 WAVE FUNCTION SAVED IN FORTRAN UNIT 79
 MODIFIED BROYDEN: MIX%=  60 W0=  1.000000000000E-02 W=  3.107576549862E+02
 TTTTTTTTTTTTTTTTTTTTTTTTTTTTTT FDIK        TELAPSE     7341.17 TCPU     7336.05
 SPIN LOCKING: NO ENERGY GAP COMPUTED
 TTTTTTTTTTTTTTTTTTTTTTTTTTTTTT PDIG        TELAPSE     7341.31 TCPU     7336.20
 CHARGE NORMALIZATION FACTOR   1.00000000
 TOTAL ATOMIC CHARGES:
   0.1717036   0.1717036   0.1717036   0.1717036  18.0146365  18.0146034
  18.0146034  18.0146365   7.4068384   7.4068384   7.4068384   7.4068384
   7.4068380   7.4068380   7.4068380   7.4068380
 SUMMED SPIN DENSITY           4.00000000
 TOTAL ATOMIC SPINS  :
  -0.0036713  -0.0036713  -0.0036713  -0.0036713   0.7038194   0.7038339
   0.7038339   0.7038198   0.1499223   0.1499223   0.1499223   0.1499223
   0.1499223   0.1499223   0.1499223   0.1499223
 TTTTTTTTTTTTTTTTTTTTTTTTTTTTTT MOQGAD      TELAPSE     7341.34 TCPU     7336.23
 TTTTTTTTTTTTTTTTTTTTTTTTTTTTTT SHELLXN     TELAPSE     7583.69 TCPU     7577.09
 TTTTTTTTTTTTTTTTTTTTTTTTTTTTTT MONMO3      TELAPSE     7635.27 TCPU     7628.68
 NUMERICALLY INTEGRATED DENSITY     68.0004730254     64.0004763999
 TTTTTTTTTTTTTTTTTTTTTTTTTTTTTT NUMDFT      TELAPSE     7636.64 TCPU     7630.04
 CYC  25 ETOT(AU) -9.203250813924E+02 DETOT -6.97E-07 tst  3.31E-09 PX  1.77E-04
 CYCLE 25 WAVE FUNCTION SAVED IN FORTRAN UNIT 79
 MODIFIED BROYDEN: MIX%=  60 W0=  1.000000000000E-02 W=  7.085677135170E+02
 TTTTTTTTTTTTTTTTTTTTTTTTTTTTTT FDIK        TELAPSE     7636.80 TCPU     7630.19
 SPIN LOCKING: NO ENERGY GAP COMPUTED
 TTTTTTTTTTTTTTTTTTTTTTTTTTTTTT PDIG        TELAPSE     7636.88 TCPU     7630.27
 CHARGE NORMALIZATION FACTOR   1.00000000
 TOTAL ATOMIC CHARGES:
   0.1717052   0.1717052   0.1717052   0.1717052  18.0145361  18.0145956
  18.0145956  18.0145361   7.4068647   7.4068647   7.4068647   7.4068647
   7.4068642   7.4068642   7.4068642   7.4068642
 SUMMED SPIN DENSITY           4.00000000
 TOTAL ATOMIC SPINS  :
  -0.0036754  -0.0036754  -0.0036754  -0.0036754   0.7038198   0.7037934
   0.7037934   0.7038201   0.1499343   0.1499343   0.1499343   0.1499343
   0.1499344   0.1499344   0.1499344   0.1499344
 TTTTTTTTTTTTTTTTTTTTTTTTTTTTTT MOQGAD      TELAPSE     7636.91 TCPU     7630.30
 TTTTTTTTTTTTTTTTTTTTTTTTTTTTTT SHELLXN     TELAPSE     7877.75 TCPU     7871.16
 TTTTTTTTTTTTTTTTTTTTTTTTTTTTTT MONMO3      TELAPSE     7928.71 TCPU     7922.14
 NUMERICALLY INTEGRATED DENSITY     68.0004730188     64.0004763970
 TTTTTTTTTTTTTTTTTTTTTTTTTTTTTT NUMDFT      TELAPSE     7930.08 TCPU     7923.51
 CYC  26 ETOT(AU) -9.203250814655E+02 DETOT -7.31E-08 tst  4.77E-10 PX  6.83E-05
 CYCLE 26 WAVE FUNCTION SAVED IN FORTRAN UNIT 79
 MODIFIED BROYDEN: MIX%=  60 W0=  1.000000000000E-02 W=  2.693397783588E+03
 TTTTTTTTTTTTTTTTTTTTTTTTTTTTTT FDIK        TELAPSE     7930.23 TCPU     7923.60
 SPIN LOCKING: NO ENERGY GAP COMPUTED
 TTTTTTTTTTTTTTTTTTTTTTTTTTTTTT PDIG        TELAPSE     7930.36 TCPU     7923.73
 CHARGE NORMALIZATION FACTOR   1.00000000
 TOTAL ATOMIC CHARGES:
   0.1717060   0.1717060   0.1717060   0.1717060  18.0145420  18.0145425
  18.0145425  18.0145422   7.4068761   7.4068761   7.4068761   7.4068761
   7.4068757   7.4068757   7.4068757   7.4068757
 SUMMED SPIN DENSITY           4.00000000
 TOTAL ATOMIC SPINS  :
  -0.0036767  -0.0036767  -0.0036767  -0.0036767   0.7038024   0.7038024
   0.7038024   0.7038025   0.1499371   0.1499371   0.1499371   0.1499371
   0.1499371   0.1499371   0.1499371   0.1499371
 TTTTTTTTTTTTTTTTTTTTTTTTTTTTTT MOQGAD      TELAPSE     7930.39 TCPU     7923.76
 TTTTTTTTTTTTTTTTTTTTTTTTTTTTTT SHELLXN     TELAPSE     8171.22 TCPU     8164.63
 TTTTTTTTTTTTTTTTTTTTTTTTTTTTTT MONMO3      TELAPSE     8222.18 TCPU     8215.60
 NUMERICALLY INTEGRATED DENSITY     68.0004730169     64.0004763964
 TTTTTTTTTTTTTTTTTTTTTTTTTTTTTT NUMDFT      TELAPSE     8223.55 TCPU     8216.96
 CYC  27 ETOT(AU) -9.203250814770E+02 DETOT -1.15E-08 tst  1.03E-10 PX  2.65E-05
 CYCLE 27 WAVE FUNCTION SAVED IN FORTRAN UNIT 79
 MODIFIED BROYDEN: MIX%=  60 W0=  1.000000000000E-02 W=  1.460210000416E+04
 TTTTTTTTTTTTTTTTTTTTTTTTTTTTTT FDIK        TELAPSE     8223.73 TCPU     8217.12
 SPIN LOCKING: NO ENERGY GAP COMPUTED
 TTTTTTTTTTTTTTTTTTTTTTTTTTTTTT PDIG        TELAPSE     8223.80 TCPU     8217.19
 CHARGE NORMALIZATION FACTOR   1.00000000
 TOTAL ATOMIC CHARGES:
   0.1717043   0.1717043   0.1717043   0.1717043  18.0145280  18.0145303
  18.0145303  18.0145289   7.4068833   7.4068833   7.4068833   7.4068833
   7.4068830   7.4068830   7.4068830   7.4068830
 SUMMED SPIN DENSITY           4.00000000
 TOTAL ATOMIC SPINS  :
  -0.0036778  -0.0036778  -0.0036778  -0.0036778   0.7037940   0.7037939
   0.7037939   0.7037941   0.1499419   0.1499419   0.1499419   0.1499419
   0.1499419   0.1499419   0.1499419   0.1499419
 TTTTTTTTTTTTTTTTTTTTTTTTTTTTTT MOQGAD      TELAPSE     8223.83 TCPU     8217.22
 TTTTTTTTTTTTTTTTTTTTTTTTTTTTTT SHELLXN     TELAPSE     8464.61 TCPU     8458.05
 TTTTTTTTTTTTTTTTTTTTTTTTTTTTTT MONMO3      TELAPSE     8515.84 TCPU     8509.29
 NUMERICALLY INTEGRATED DENSITY     68.0004730157     64.0004763969
 TTTTTTTTTTTTTTTTTTTTTTTTTTTTTT NUMDFT      TELAPSE     8517.20 TCPU     8510.65
 CYC  28 ETOT(AU) -9.203250814778E+02 DETOT -8.83E-10 tst  2.19E-11 PX  1.06E-05
 CYCLE 28 WAVE FUNCTION SAVED IN FORTRAN UNIT 79
 MODIFIED BROYDEN: MIX%=  60 W0=  1.000000000000E-02 W=  3.830382493231E+04
 TTTTTTTTTTTTTTTTTTTTTTTTTTTTTT FDIK        TELAPSE     8517.37 TCPU     8510.80
 SPIN LOCKING: NO ENERGY GAP COMPUTED
 TTTTTTTTTTTTTTTTTTTTTTTTTTTTTT PDIG        TELAPSE     8517.45 TCPU     8510.88
 CHARGE NORMALIZATION FACTOR   1.00000000
 TOTAL ATOMIC CHARGES:
   0.1717046   0.1717046   0.1717046   0.1717046  18.0145315  18.0145327
  18.0145327  18.0145316   7.4068818   7.4068818   7.4068818   7.4068818
   7.4068814   7.4068814   7.4068814   7.4068814
 SUMMED SPIN DENSITY           4.00000000
 TOTAL ATOMIC SPINS  :
  -0.0036779  -0.0036779  -0.0036779  -0.0036779   0.7037957   0.7037960
   0.7037960   0.7037958   0.1499410   0.1499410   0.1499410   0.1499410
   0.1499410   0.1499410   0.1499410   0.1499410
 TTTTTTTTTTTTTTTTTTTTTTTTTTTTTT MOQGAD      TELAPSE     8517.48 TCPU     8510.91
 TTTTTTTTTTTTTTTTTTTTTTTTTTTTTT SHELLXN     TELAPSE     8758.32 TCPU     8751.77
 TTTTTTTTTTTTTTTTTTTTTTTTTTTTTT MONMO3      TELAPSE     8809.37 TCPU     8802.83
 NUMERICALLY INTEGRATED DENSITY     68.0004730158     64.0004763970
 TTTTTTTTTTTTTTTTTTTTTTTTTTTTTT NUMDFT      TELAPSE     8810.74 TCPU     8804.20
 CYC  29 ETOT(AU) -9.203250814779E+02 DETOT -1.75E-11 tst  1.86E-12 PX  2.74E-06
 CYCLE 29 WAVE FUNCTION SAVED IN FORTRAN UNIT 79
 MODIFIED BROYDEN: MIX%=  60 W0=  1.000000000000E-02 W=  5.438308600861E+04
 TTTTTTTTTTTTTTTTTTTTTTTTTTTTTT FDIK        TELAPSE     8810.89 TCPU     8804.33
 SPIN LOCKING: NO ENERGY GAP COMPUTED
 TTTTTTTTTTTTTTTTTTTTTTTTTTTTTT PDIG        TELAPSE     8810.98 TCPU     8804.42
 CHARGE NORMALIZATION FACTOR   1.00000000
 TOTAL ATOMIC CHARGES:
   0.1717054   0.1717054   0.1717054   0.1717054  18.0145427  18.0145437
  18.0145437  18.0145439   7.4068757   7.4068757   7.4068757   7.4068757
   7.4068754   7.4068754   7.4068754   7.4068754
 SUMMED SPIN DENSITY           4.00000000
 TOTAL ATOMIC SPINS  :
  -0.0036779  -0.0036779  -0.0036779  -0.0036779   0.7037916   0.7037921
   0.7037921   0.7037914   0.1499431   0.1499431   0.1499431   0.1499431
   0.1499430   0.1499430   0.1499430   0.1499430
 TTTTTTTTTTTTTTTTTTTTTTTTTTTTTT MOQGAD      TELAPSE     8811.01 TCPU     8804.45
 TTTTTTTTTTTTTTTTTTTTTTTTTTTTTT SHELLXN     TELAPSE     9051.80 TCPU     9045.27
 +++ ENERGIES IN A.U. +++
 ::: EXT EL-POLE                                  -4.6796110584654E+03
 ::: EXT EL-SPHEROPOLE                             2.2836088078435E+01
 ::: BIELET ZONE E-E                               5.0981327114221E+03
 ::: TOTAL E-E                                     4.4135774103513E+02
 ::: TOTAL E-N + N-E                              -1.4610065685198E+03
 ::: TOTAL N-N                                    -4.1431339568884E+02
 ::: KINETIC ENERGY                                5.9617762542826E+02
 ::: PSEUDO TOTAL   ENERGY                        -8.3778459774521E+02
 ::: VIRIAL COEFFICIENT                            8.3151092238521E-01
 TTTTTTTTTTTTTTTTTTTTTTTTTTTTTT MONMO3      TELAPSE     9102.78 TCPU     9096.25
 NUMERICALLY INTEGRATED DENSITY     68.0004730167     64.0004763980
 TTTTTTTTTTTTTTTTTTTTTTTTTTTTTT NUMDFT      TELAPSE     9104.15 TCPU     9097.62
 CYC  30 ETOT(AU) -9.203250814767E+02 DETOT  1.14E-09 tst  7.68E-12 PX  2.74E-06

 == SCF ENDED - CONVERGENCE ON ENERGY      E(AU) -9.2032508147672E+02 CYCLES  30


 ENERGY EXPRESSION=HARTREE+FOCK EXCH*0.00000+(HSESOL     EXCH)*1.00000+PBESOL     CORR

 FINITE TEMPERATURE DFT CALCULATION 
 TEMPERATURE      (T)    1.000000000000E-13 HARTREE 
 ENERGY           (E)   -9.203250814767E+02
 FREE ENERGY      (F)   -9.203250814767E+02
 ELECTRON ENTROPY (S)    0.000000000000E+00
 (E(T)+F(T))/2    (E0)  -9.203250814767E+02


 TOTAL ENERGY(DFT)(AU)( 30) -9.2032508147672E+02 DE 1.1E-09 tester 7.7E-12
 TTTTTTTTTTTTTTTTTTTTTTTTTTTTTT EDFT        TELAPSE     9104.16 TCPU     9097.63
 EIGENVECTORS IN FORTRAN UNIT  8
 TTTTTTTTTTTTTTTTTTTTTTTTTTTTTT END         TELAPSE     9104.55 TCPU     9097.98
 EEEEEEEEEE TERMINATION  DATE 29 11 2017 TIME 06:01:49.5
NODE    0 CPU TIME =      9097.977
NODE    1 CPU TIME =      9099.220
NODE    2 CPU TIME =      9100.892
NODE    3 CPU TIME =      9099.905
NODE    4 CPU TIME =      9099.221
NODE    5 CPU TIME =      9098.878
NODE    6 CPU TIME =      9094.929
NODE    7 CPU TIME =      9096.495
NODE    8 CPU TIME =      9099.922
NODE    9 CPU TIME =      9097.592
NODE   10 CPU TIME =      9098.758
NODE   11 CPU TIME =      9099.046
NODE   12 CPU TIME =      9095.609
NODE   13 CPU TIME =      9100.229
NODE   14 CPU TIME =      9102.095
NODE   15 CPU TIME =      9097.460
    TOTAL CPU TIME =    145578.227
