--------------------------------------------------------------------------
[[31666,1],3]: A high-performance Open MPI point-to-point messaging module
was unable to find any relevant network interfaces:

Module: OpenFabrics (openib)
  Host: golub227

Another transport will be used instead, although this may result in
lower performance.
--------------------------------------------------------------------------
 PROCESS            9  OF           24  WORKING
 PROCESS           12  OF           24  WORKING
 PROCESS            5  OF           24  WORKING
 PROCESS           16  OF           24  WORKING
 PROCESS           13  OF           24  WORKING
 PROCESS           10  OF           24  WORKING
 PROCESS           11  OF           24  WORKING
 PROCESS            1  OF           24  WORKING
 PROCESS            8  OF           24  WORKING
 PROCESS           22  OF           24  WORKING
 PROCESS           18  OF           24  WORKING
 PROCESS           21  OF           24  WORKING
 PROCESS            3  OF           24  WORKING
 PROCESS           20  OF           24  WORKING
 PROCESS            2  OF           24  WORKING
 PROCESS           14  OF           24  WORKING
 PROCESS            6  OF           24  WORKING
 PROCESS           15  OF           24  WORKING
 PROCESS           19  OF           24  WORKING
 PROCESS            0  OF           24  WORKING
 PROCESS            4  OF           24  WORKING
 PROCESS           23  OF           24  WORKING
 PROCESS           17  OF           24  WORKING
 PROCESS            7  OF           24  WORKING

         
 *******************************************************************************
 *                                                                             *
 *                               CRYSTAL17                                     *
 *                      public : 1.0.1 - Jun 21st, 2017                        *
 *                       HTTP://WWW.CRYSTAL.UNITO.IT                           *
 *                                                                             *
 *                              MAIN AUTHORS                                   *
 *                                                                             *
 *  R. DOVESI(1,11), V.R. SAUNDERS(2), C. ROETTI(1,11), R. ORLANDO(1,11),      *
 *  C.M. ZICOVICH-WILSON(1,3), F. PASCALE(4), B. CIVALLERI(1,11),              *
 *  K. DOLL(5), N.M. HARRISON(2,6), I.J. BUSH(7), Ph. D'ARCO(8),               *
 *  M. LLUNELL(9), M. CAUSA'(10), Y. NOEL(8), L. MASCHIO(1,11), A. ERBA(1,11)  *
 *  M. RE'RAT(14), S. CASASSA(1,11)                                            *
 *                                                                             *
 *        CONTRIBUTIONS TO THE CODE HAVE ALSO BEEN GIVEN BY                    *
 *                                                                             *
 *  M. FERRABONE(1,11), M. DE LA PIERRE(1,11), M. FERRERO(1,11),               *
 *  J. BAIMA(1,11), E. ALBANESE(1,11), M.F. PEINTINGER(12), R. BAST(13),       *
 *  B. KIRTMAN(15), V. LACIVITA(1,11), R. DEMICHELIS(1,16)                     *
 *  G. BRANDEBURG(17), S. SALUSTRO(1,11), G. SANSONE(1,11)                     *
 *  M.T. RUGGIERO(18)                                                          *
 *                                                                             *
 * (1) THEORETICAL CHEMISTRY GROUP - UNIVERSITA' DI TORINO - TORINO (ITALY)    *

 * (2) COMPUTATIONAL SCIENCE & ENGINEERING DEPARTMENT - STFC DARESBURY (UK)    *
 * (3) UNIVERSIDAD AUTONOMA DEL ESTADO DE MORELOS - CUERNAVACA (MEXICO)        *
 * (4) UNIVERSITE' DE LORRAINE - NANCY (FRANCE)                                *
 * (5) UNIVERSITAET STUTTGART- STUTTGART (GERMANY)                             *
 * (6) IMPERIAL COLLEGE - LONDON (UK)                                          *
 * (7) OXFORD E-RESEARCH CENTRE - OXFORD (UK)                                  *
 * (8) UPMC - SORBONNE UNIVERSITES - PARIS (FRANCE)                            *
 * (9) UNIVERSIDAD DE BARCELONA - BARCELONA (SPAIN)                            *
 *(10) UNIVERSITA' DI NAPOLI "FEDERICO II" - NAPOLI (ITALY)                    *
 *(11) NIS - NANOSTRUCTURED INTERFACES AND SURFACES - TORINO (ITALY)           *
 *(12) MPI FUER CHEMISCHE ENERGIEKONVERSION - MUELHEIM AN DER RUHR (GERMANY)   *
 *(13) UNIVERSITY OF TROMSO - TROMSO (NORWAY)                                  *
 *(14) UNIVERSITE' DE PAU ET DES PAYS DE L'ADOUR - PAU (FRANCE)                *
 *(15) UNIVERSITY OF CALIFORNIA SANTA BARBARA - SANTA BARBARA (USA)            *
 *(16) CURTIN UNIVERSITY - PERTH (AUSTRALIA)                                   *
 *(17) UNIVERSITY COLLEGE LONDON - LONDON (UK)                                 *
 *(18) CAMBRIDGE UNIVERSITY - CAMBRIDGE (UK)                                   *
 *                                                                             *
 *******************************************************************************
 EEEEEEEEEE STARTING  DATE 20 11 2017 TIME 00:21:48.5
 Generated by CrystalWriter                                                      

 CRYSTAL CALCULATION
 (INPUT ACCORDING TO THE INTERNATIONAL TABLES FOR X-RAY CRYSTALLOGRAPHY)
 CRYSTAL FAMILY                       :  TETRAGONAL  
 CRYSTAL CLASS  (GROTH - 1921)        :  DITETRAGONAL DIPYRAMIDAL             

 SPACE GROUP (CENTROSYMMETRIC)        :  P 4/M M M       

 LATTICE PARAMETERS  (ANGSTROMS AND DEGREES) - CONVENTIONAL CELL
        A           B           C        ALPHA        BETA       GAMMA
     7.85570     7.85570     3.43380    90.00000    90.00000    90.00000


 NUMBER OF IRREDUCIBLE ATOMS IN THE CONVENTIONAL CELL:   16

 INPUT COORDINATES

 ATOM AT. N.              COORDINATES
   1 238     2.500000000000E-01  7.500000000000E-01  5.000000000000E-01
   2 238     2.500000000000E-01  2.500000000000E-01  5.000000000000E-01
   3 238     7.500000000000E-01  2.500000000000E-01  5.000000000000E-01
   4 238     7.500000000000E-01  7.500000000000E-01  5.000000000000E-01
   5 229     5.000000000000E-01  5.000000000000E-01  0.000000000000E+00
   6 229     0.000000000000E+00  5.000000000000E-01  0.000000000000E+00
   7 229     0.000000000000E+00  0.000000000000E+00  0.000000000000E+00
   8 229     5.000000000000E-01  0.000000000000E+00  0.000000000000E+00
   9 208     0.000000000000E+00  2.500000000000E-01  0.000000000000E+00
  10 208     7.500000000000E-01  5.000000000000E-01  0.000000000000E+00
  11 208     5.000000000000E-01  2.500000000000E-01  0.000000000000E+00
  12 208     2.500000000000E-01  5.000000000000E-01  0.000000000000E+00
  13 208     7.500000000000E-01  0.000000000000E+00  0.000000000000E+00
  14 208     0.000000000000E+00  7.500000000000E-01  0.000000000000E+00
  15 208     5.000000000000E-01  7.500000000000E-01  0.000000000000E+00
  16 208     2.500000000000E-01  0.000000000000E+00  0.000000000000E+00

 *******************************************************************************

 << INFORMATION >>: FROM NOW ON, ALL COORDINATES REFER TO THE PRIMITIVE CELL

 *******************************************************************************

 LATTICE PARAMETERS  (ANGSTROMS AND DEGREES) - PRIMITIVE CELL
       A          B          C        ALPHA      BETA     GAMMA        VOLUME
    7.85570    7.85570    3.43380    90.00000  90.00000  90.00000    211.906743

 INPUT LIST - ATOM N.   3 NOT IRREDUCIBLE

 INPUT LIST - ATOM N.   2 NOT IRREDUCIBLE

 INPUT LIST - ATOM N.   4 NOT IRREDUCIBLE

 INPUT LIST - ATOM N.   7 NOT IRREDUCIBLE

 INPUT LIST - ATOM N.  15 NOT IRREDUCIBLE

 INPUT LIST - ATOM N.  14 NOT IRREDUCIBLE

 INPUT LIST - ATOM N.  11 NOT IRREDUCIBLE

 INPUT LIST - ATOM N.  10 NOT IRREDUCIBLE

 INPUT LIST - ATOM N.  16 NOT IRREDUCIBLE

 INPUT LIST - ATOM N.  12 NOT IRREDUCIBLE

 COORDINATES OF THE EQUIVALENT ATOMS (FRACTIONAL UNITS)

 N. ATOM EQUIV AT. N.          X                  Y                  Z

   1   1   1  238 SR    2.50000000000E-01 -2.50000000000E-01 -5.00000000000E-01
   2   1   2  238 SR   -2.50000000000E-01  2.50000000000E-01 -5.00000000000E-01
   3   1   3  238 SR    2.50000000000E-01  2.50000000000E-01  5.00000000000E-01
   4   1   4  238 SR   -2.50000000000E-01 -2.50000000000E-01  5.00000000000E-01




   5   5   1  229 CU   -5.00000000000E-01 -5.00000000000E-01  0.00000000000E+00

   6   6   1  229 CU    0.00000000000E+00 -5.00000000000E-01  0.00000000000E+00
   7   6   2  229 CU    5.00000000000E-01  0.00000000000E+00  0.00000000000E+00

 NUMBER OF SYMMETRY OPERATORS         :   16
 *******************************************************************************
 * GEOMETRY EDITING - INPUT COORDINATES ARE GIVEN IN ANGSTROM         
 *******************************************************************************

 GEOMETRY NOW FULLY CONSISTENT WITH THE GROUP
 SSSSSSSSSSSSSSSSSSSSSSSSSSSSSSSSSSSSSSSSSSSSSSSSSSSSSSSSSSSSSSSSSSSSSSSSSSSSSS
 REDUCTION OF SYMMETRY - ATOMIC LABELS SET TO (ATOM, AT. N., LABEL)
   1(238) 1;   2(238) 1;   3(238) 1;   4(238) 1;   5(229) 2;   6(229) 3;
   7(229) 2;   8(229) 3;   9(208) 4;  10(208) 4;  11(208) 4;  12(208) 4;
  13(208) 4;  14(208) 4;  15(208) 4;  16(208) 4;
 THE NUMBER OF SYMMETRY OPERATORS HAS BEEN REDUCED FROM 16 TO  8
 *******************************************************************************

 GCALCO - MAX INDICES DIRECT LATTICE VECTOR    11    11    25
 NO.OF VECTORS CREATED 6999 STARS  550 RMAX   133.78549 BOHR

 GEOMETRY FOR WAVE FUNCTION - DIMENSIONALITY OF THE SYSTEM    3
 (NON PERIODIC DIRECTION: LATTICE PARAMETER FORMALLY SET TO 500)
 *******************************************************************************
 LATTICE PARAMETERS (ANGSTROMS AND DEGREES) - BOHR = 0.5291772083 ANGSTROM
 PRIMITIVE CELL - CENTRING CODE 1/1 VOLUME=   211.906743 - DENSITY  5.731 g/cm^3
         A              B              C           ALPHA      BETA       GAMMA 
     7.85570000     7.85570000     3.43380000    90.000000  90.000000  90.000000
 *******************************************************************************
 ATOMS IN THE ASYMMETRIC UNIT    9 - ATOMS IN THE UNIT CELL:   16
     ATOM                 X/A                 Y/B                 Z/C    
 *******************************************************************************
      1 T 238 SR    2.500000000000E-01 -2.500000000000E-01  5.000000000000E-01
      2 F 238 SR   -2.500000000000E-01  2.500000000000E-01  5.000000000000E-01
      3 F 238 SR    2.500000000000E-01  2.500000000000E-01  5.000000000000E-01
      4 F 238 SR   -2.500000000000E-01 -2.500000000000E-01  5.000000000000E-01
      5 T 229 CU   -5.000000000000E-01 -5.000000000000E-01  0.000000000000E+00
      6 T 229 CU    0.000000000000E+00 -5.000000000000E-01  0.000000000000E+00
      7 T 229 CU   -5.000000000000E-01  0.000000000000E+00  0.000000000000E+00
      8 T 229 CU    0.000000000000E+00  0.000000000000E+00  0.000000000000E+00
      9 T 208 O     0.000000000000E+00  2.500000000000E-01  0.000000000000E+00
     10 F 208 O     0.000000000000E+00 -2.500000000000E-01  0.000000000000E+00
     11 T 208 O    -2.500000000000E-01  0.000000000000E+00  0.000000000000E+00
     12 F 208 O     2.500000000000E-01  0.000000000000E+00  0.000000000000E+00
     13 T 208 O    -2.500000000000E-01 -5.000000000000E-01  0.000000000000E+00
     14 F 208 O     2.500000000000E-01 -5.000000000000E-01  0.000000000000E+00
     15 T 208 O    -5.000000000000E-01  2.500000000000E-01  0.000000000000E+00
     16 F 208 O    -5.000000000000E-01 -2.500000000000E-01  0.000000000000E+00

 T = ATOM BELONGING TO THE ASYMMETRIC UNIT

 ****    8 SYMMOPS - TRANSLATORS IN FRACTIONAL UNITS
 **** MATRICES AND TRANSLATORS IN THE CRYSTALLOGRAPHIC REFERENCE FRAME
   V INV                    ROTATION MATRICES                   TRANSLATORS
   1   1  1.00  0.00  0.00  0.00  1.00  0.00  0.00  0.00  1.00  0.00  0.00  0.00
   2   2 -1.00  0.00  0.00  0.00 -1.00  0.00  0.00  0.00  1.00  0.00  0.00  0.00
   3   3  1.00  0.00  0.00  0.00 -1.00  0.00  0.00  0.00 -1.00  0.00  0.00  0.00
   4   4 -1.00  0.00  0.00  0.00  1.00  0.00  0.00  0.00 -1.00  0.00  0.00  0.00
   5   5 -1.00  0.00  0.00  0.00 -1.00  0.00  0.00  0.00 -1.00  0.00  0.00  0.00
   6   6  1.00  0.00  0.00  0.00  1.00  0.00  0.00  0.00 -1.00  0.00  0.00  0.00
   7   7 -1.00  0.00  0.00  0.00  1.00  0.00  0.00  0.00  1.00  0.00  0.00  0.00
   8   8  1.00  0.00  0.00  0.00 -1.00  0.00  0.00  0.00  1.00  0.00  0.00  0.00

 DIRECT LATTICE VECTORS CARTESIAN COMPONENTS (ANGSTROM)
          X                    Y                    Z
   0.785570000000E+01   0.000000000000E+00   0.000000000000E+00
   0.000000000000E+00   0.785570000000E+01   0.000000000000E+00
   0.000000000000E+00   0.000000000000E+00   0.343380000000E+01


 CARTESIAN COORDINATES - PRIMITIVE CELL
 *******************************************************************************
 *      ATOM          X(ANGSTROM)         Y(ANGSTROM)         Z(ANGSTROM)
 *******************************************************************************
    1   238 SR    1.963925000000E+00 -1.963925000000E+00  1.716900000000E+00
    2   238 SR   -1.963925000000E+00  1.963925000000E+00  1.716900000000E+00
    3   238 SR    1.963925000000E+00  1.963925000000E+00  1.716900000000E+00
    4   238 SR   -1.963925000000E+00 -1.963925000000E+00  1.716900000000E+00
    5   229 CU    3.927850000000E+00  3.927850000000E+00  0.000000000000E+00
    6   229 CU    0.000000000000E+00  3.927850000000E+00  0.000000000000E+00
    7   229 CU    3.927850000000E+00  0.000000000000E+00  0.000000000000E+00
    8   229 CU    0.000000000000E+00  0.000000000000E+00  0.000000000000E+00
    9   208 O     0.000000000000E+00  1.963925000000E+00  0.000000000000E+00
   10   208 O     0.000000000000E+00 -1.963925000000E+00  0.000000000000E+00
   11   208 O    -1.963925000000E+00  0.000000000000E+00  0.000000000000E+00
   12   208 O     1.963925000000E+00  0.000000000000E+00  0.000000000000E+00
   13   208 O    -1.963925000000E+00  3.927850000000E+00  0.000000000000E+00
   14   208 O     1.963925000000E+00  3.927850000000E+00  0.000000000000E+00
   15   208 O     3.927850000000E+00  1.963925000000E+00  0.000000000000E+00
   16   208 O     3.927850000000E+00 -1.963925000000E+00  0.000000000000E+00

 *******************************************************************************
 *** PSEUDOPOTENTIAL INFORMATION ***
 *******************************************************************************

 ATOMIC NUMBER  29, NUCLEAR CHARGE 19.000, GIVEN IN INPUT       PSEUDOPOTENTIAL
   TYPE       EXPONENT      COEFF.    N      EXPONENT      COEFF.    N
  W0 TMS     6.2514963   19.0000000  -1     6.7272533  118.7784294   1
             6.6102459 -105.8998240   0
  P0 TMS    12.3656871  127.3506942   0
  P1 TMS    11.1607294   71.2298490   0

 ATOMIC NUMBER   8, NUCLEAR CHARGE  6.000, GIVEN IN INPUT       PSEUDOPOTENTIAL
   TYPE       EXPONENT      COEFF.    N      EXPONENT      COEFF.    N
  W0 TMS     9.2979390    6.0000000  -1     8.8649220   55.7876342   1
             8.6292567  -38.8197850   0
  P0 TMS     8.7192445   38.4191413   0

 ATOMIC NUMBER  38, NUCLEAR CHARGE  2.000, GIVEN IN INPUT       PSEUDOPOTENTIAL
   TYPE       EXPONENT      COEFF.    N      EXPONENT      COEFF.    N
  W0 TMS     4.3839388    2.0000000  -1     3.1964983    8.7678775   1
             0.9899150  -14.2552431   0
  P0 TMS     1.2868349  146.8716052   0
  P1 TMS     0.9567448  140.0262284   0
  P2 TMS     1.9483165   24.4454878   0

 *******************************************************************************
 LOCAL ATOMIC FUNCTIONS BASIS SET
 *******************************************************************************
   ATOM   X(AU)   Y(AU)   Z(AU)  N. TYPE  EXPONENT  S COEF   P COEF   D/F/G COEF
 *******************************************************************************
   1 SR   3.711  -3.711   3.244
                                  1 S  
                                         2.177E-01-9.389E-02 0.000E+00 0.000E+00
                                         4.871E-01-2.476E-01 0.000E+00 0.000E+00
                                         1.090E+00 1.601E-01 0.000E+00 0.000E+00
                                         2.439E+00-4.360E-02 0.000E+00 0.000E+00
                                         5.457E+00 8.684E-03 0.000E+00 0.000E+00
                                         1.221E+01-1.296E-03 0.000E+00 0.000E+00
                           2-     4 P  
                                         2.236E-01 0.000E+00-4.747E-02 0.000E+00
                                         4.507E-01 0.000E+00-1.710E-01 0.000E+00
                                         9.086E-01 0.000E+00 1.048E-01 0.000E+00
                                         1.831E+00 0.000E+00-2.952E-02 0.000E+00
                                         3.692E+00 0.000E+00 6.196E-03 0.000E+00
                                         7.442E+00 0.000E+00-9.550E-04 0.000E+00
                           5-     9 D  
                                         5.283E-01 0.000E+00 0.000E+00 1.000E+00
                                 10 S  
                                         2.000E-01 1.000E+00 0.000E+00 0.000E+00
                                 11 S  
                                         6.000E-01 1.000E+00 0.000E+00 0.000E+00
                          12-    14 P  
                                         2.000E-01 0.000E+00 1.000E+00 0.000E+00
                          15-    17 P  
                                         6.000E-01 0.000E+00 1.000E+00 0.000E+00
   2 SR  -3.711   3.711   3.244
   3 SR   3.711   3.711   3.244
   4 SR  -3.711  -3.711   3.244
   5 CU   7.423   7.423   0.000
                                 69 S  
                                         2.785E+01-1.934E-02 0.000E+00 0.000E+00
                                         2.142E+01 8.861E-02 0.000E+00 0.000E+00
                                         1.054E+01-3.559E-01 0.000E+00 0.000E+00
                                         2.536E+00 5.381E-01 0.000E+00 0.000E+00
                                         1.250E+00 5.111E-01 0.000E+00 0.000E+00
                                         5.998E-01 1.476E-01 0.000E+00 0.000E+00
                                 70 S  
                                         2.785E+01-2.653E-03 0.000E+00 0.000E+00
                                         2.142E+01-7.542E-03 0.000E+00 0.000E+00
                                         1.054E+01 7.976E-02 0.000E+00 0.000E+00
                                         2.536E+00-1.553E-01 0.000E+00 0.000E+00
                                         1.250E+00-2.531E-01 0.000E+00 0.000E+00
                                         5.998E-01-2.817E-02 0.000E+00 0.000E+00
                          71-    73 P  
                                         1.859E+01 0.000E+00 3.652E-03 0.000E+00
                                         1.430E+01 0.000E+00-3.708E-02 0.000E+00
                                         5.631E+00 0.000E+00 2.171E-01 0.000E+00
                                         2.683E+00 0.000E+00 4.410E-01 0.000E+00
                                         1.259E+00 0.000E+00 3.587E-01 0.000E+00
                                         5.741E-01 0.000E+00 1.148E-01 0.000E+00
                                         2.092E-01 0.000E+00 7.316E-03 0.000E+00
                          74-    78 D  
                                         1.579E+01 0.000E+00 0.000E+00 8.422E-02
                                         7.203E+00 0.000E+00 0.000E+00 2.554E-01
                                         2.974E+00 0.000E+00 0.000E+00 3.500E-01
                                         1.207E+00 0.000E+00 0.000E+00 3.417E-01
                                         4.640E-01 0.000E+00 0.000E+00 2.417E-01
                          79-    85 F  
                                         1.692E+00 0.000E+00 0.000E+00 1.000E+00
                                 86 S  
                                         2.000E-01 1.000E+00 0.000E+00 0.000E+00
                                 87 S  
                                         6.000E-01 1.000E+00 0.000E+00 0.000E+00
                          88-    90 P  
                                         2.000E-01 0.000E+00 1.000E+00 0.000E+00
                          91-    93 P  
                                         6.000E-01 0.000E+00 1.000E+00 0.000E+00
                          94-    98 D  
                                         2.000E-01 0.000E+00 0.000E+00 1.000E+00
                          99-   103 D  
                                         6.000E-01 0.000E+00 0.000E+00 1.000E+00
   6 CU   0.000   7.423   0.000
   7 CU   7.423   0.000   0.000
   8 CU   0.000   0.000   0.000
   9 O    0.000   3.711   0.000
                                209 S  
                                         2.680E-01 3.048E-01 0.000E+00 0.000E+00
                                         5.731E-01 4.538E-01 0.000E+00 0.000E+00
                                         1.225E+00 2.959E-01 0.000E+00 0.000E+00
                                         2.620E+00 1.957E-02 0.000E+00 0.000E+00
                                         5.603E+00-1.286E-01 0.000E+00 0.000E+00
                                         1.198E+01 1.202E-02 0.000E+00 0.000E+00
                                         2.562E+01 4.070E-04 0.000E+00 0.000E+00
                                         5.478E+01-7.600E-05 0.000E+00 0.000E+00
                         210-   212 P  
                                         3.337E-01 0.000E+00 2.560E-01 0.000E+00
                                         6.666E-01 0.000E+00 2.819E-01 0.000E+00
                                         1.332E+00 0.000E+00 2.428E-01 0.000E+00
                                         2.661E+00 0.000E+00 1.611E-01 0.000E+00
                                         5.316E+00 0.000E+00 8.231E-02 0.000E+00
                                         1.062E+01 0.000E+00 3.990E-02 0.000E+00
                                         2.122E+01 0.000E+00 4.679E-03 0.000E+00
                         213-   217 D  
                                         6.693E-01 0.000E+00 0.000E+00 1.000E+00
                         218-   224 F  
                                         1.423E+00 0.000E+00 0.000E+00 1.000E+00
                                225 S  
                                         2.000E-01 1.000E+00 0.000E+00 0.000E+00
                                226 S  
                                         6.000E-01 1.000E+00 0.000E+00 0.000E+00
                         227-   229 P  
                                         2.000E-01 0.000E+00 1.000E+00 0.000E+00
                         230-   232 P  
                                         6.000E-01 0.000E+00 1.000E+00 0.000E+00
  10 O    0.000  -3.711   0.000
  11 O   -3.711   0.000   0.000
  12 O    3.711   0.000   0.000
  13 O   -3.711   7.423   0.000
  14 O    3.711   7.423   0.000
  15 O    7.423   3.711   0.000
  16 O    7.423  -3.711   0.000
 INFORMATION **** SET_MPP **** PCRYSTAL CALCULATION
 INFORMATION **** READM2 **** NEW DEFAULT: FOCK/KS MATRIX MIXING SET TO 30 %
 INFORMATION **** READM2 **** NEW DEFAULT: FULL DIRECT SCF MODE
 INFORMATION **** READM2 **** NEW DEFAULT: COULOMB BIPOLAR BUFFER SET TO 32 Mb
 INFORMATION **** READM2 **** NEW DEFAULT: EXCHANGE BIPOLAR BUFFER SET TO 32 Mb

 *******************************************************************************
 NEW DEFAULT: DFT INTEGRATION GRID INCREASED TO XLGRID
 NEW DEFAULT: DIIS ACCELERATOR ACTIVE
 USE KEYWORD NODIIS TO TURN IT OFF
 *******************************************************************************

 INFORMATION **** READM2 **** FULL DIRECT SCF (MONO AND BIEL INT) SELECTED
 INFORMATION **** BIPOSIZE **** COULOMB BIPOLAR BUFFER SET TO   100000000
 INFORMATION **** EXCHSIZE **** EXCHANGE BIPOLAR BUFFER SIZE SET TO    10000000
 INFORMATION **** TOLDEE **** SCF TOL ON TOTAL ENERGY SET TO          10
 INFORMATION **** TOLINTEG **** COULOMB AND EXCHANGE SERIES TOLERANCES MODIFIED
 INFORMATION **** MAXCYCLE **** MAX NUMBER OF SCF CYCLES SET TO         200
 INFORMATION **** SMEAR **** FERMI SMEARING ACTIVE
 FERMI SMEARING - TEMPERATURE SMEARING OF FERMI SURFACE  0.1000E-12
 INFORMATION **** SAVEWF **** not fully tested
 INFORMATION **** SPINLOCK **** LOCK IN A GIVEN SPIN STATE
 ALPHA-BETA ELECTRONS LOCKED TO   0 FOR 200 SCF CYCLES
 SSSSSSSSSSSSSSSSSSSSSSSSSSSSSSSSSSSSSSSSSSSSSSSSSSSSSSSSSSSSSSSSSSSSSSSSSSSSSS
 ATOMIC SPINS SET TO (ATOM, AT. N., SPIN)
   1 238 0   2 238 0   3 238 0   4 238 0   5 229 1   6 229-1   7 229 1   8 229-1
   9 208 0  10 208 0  11 208 0  12 208 0  13 208 0  14 208 0  15 208 0  16 208 0

 MODIFIED BROYDEN MIXING OF THE FOCK MATRIX
 WO PARAMETER(D.D. Johnson, PRB38, 12807,(1988)             1.0000E-02
 % OF FOCK/KS MATRICES MIXING WHEN BROYDEN METHOD IS ON             60
 NUMBER OF SCF ITERATIONS AFTER WHICH BROYDEN METHOD IS ACTIVE      15
 *******************************************************************************
 N. OF ATOMS PER CELL        16  COULOMB OVERLAP TOL         (T1) 10**   -8
 NUMBER OF SHELLS           136  COULOMB PENETRATION TOL     (T2) 10**   -8
 NUMBER OF AO               400  EXCHANGE OVERLAP TOL        (T3) 10**   -8
 N. OF ELECTRONS PER CELL   132  EXCHANGE PSEUDO OVP (F(G))  (T4) 10**   -8
 CORE ELECTRONS PER CELL      0  EXCHANGE PSEUDO OVP (P(G))  (T5) 10**  -16
 N. OF SYMMETRY OPERATORS     8  POLE ORDER IN MONO ZONE                  4
 *******************************************************************************
 TYPE OF CALCULATION :  UNRESTRICTED OPEN SHELL
 KOHN-SHAM HAMILTONIAN

 (EXCHANGE)[CORRELATION] FUNCTIONAL:(PBEsol GGA)[PBEsol]


 HYBRID EXCHANGE - PERCENTAGE OF FOCK EXCHANGE    25.0000

 SPIN POLARIZED DFT SELECTED
 CORE  PSEUDO POTENTIAL         TOL. ON PSEUDO              (TP) 10**- 6

 CAPPA:IS1  4;IS2  4;IS3  4; K PTS MONK NET  27; SYMMOPS:K SPACE   8;G SPACE   8

 *******************************************************************************
 MAX NUMBER OF SCF CYCLES     200  CONVERGENCE ON DELTAP        10**-20
 WEIGHT OF F(I) IN F(I+1)      90% CONVERGENCE ON ENERGY        10**-10
 SHRINK. FACT.(MONKH.)    4  4  4  NUMBER OF K POINTS IN THE IBZ     27
 SHRINKING FACTOR(GILAT NET)    8  NUMBER OF K POINTS(GILAT NET)    125
 *******************************************************************************
 *** K POINTS COORDINATES (OBLIQUE COORDINATES IN UNITS OF IS =  4)
   1-R(  0  0  0)   2-C(  1  0  0)   3-R(  2  0  0)   4-C(  0  1  0)
   5-C(  1  1  0)   6-C(  2  1  0)   7-R(  0  2  0)   8-C(  1  2  0)
   9-R(  2  2  0)  10-C(  0  0  1)  11-C(  1  0  1)  12-C(  2  0  1)
  13-C(  0  1  1)  14-C(  1  1  1)  15-C(  2  1  1)  16-C(  0  2  1)
  17-C(  1  2  1)  18-C(  2  2  1)  19-R(  0  0  2)  20-C(  1  0  2)
  21-R(  2  0  2)  22-C(  0  1  2)  23-C(  1  1  2)  24-C(  2  1  2)
  25-R(  0  2  2)  26-C(  1  2  2)  27-R(  2  2  2)

 DIRECT LATTICE VECTORS COMPON. (A.U.)     RECIP. LATTICE VECTORS COMPON. (A.U.) 
        X            Y            Z              X            Y            Z
   14.8451216    0.0000000    0.0000000      0.4232492    0.0000000    0.0000000
    0.0000000   14.8451216    0.0000000      0.0000000    0.4232492    0.0000000
    0.0000000    0.0000000    6.4889416      0.0000000    0.0000000    0.9682912

 DISK SPACE FOR EIGENVECTORS (FTN 10)     7360000 REALS

 SYMMETRY ADAPTION OF THE BLOCH FUNCTIONS ENABLED
 TTTTTTTTTTTTTTTTTTTTTTTTTTTTTT gordsh1     TELAPSE        2.09 TCPU        0.08

 MATRIX SIZE: P(G) 1263000, F(G)  225436, P(G) IRR  128114, F(G) IRR   54066
 MAX G-VECTOR INDEX FOR 1- AND 2-ELECTRON INTEGRALS 103

 TTTTTTTTTTTTTTTTTTTTTTTTTTTTTT INPUT       TELAPSE        2.12 TCPU        0.11

 NEIGHBORS OF THE NON-EQUIVALENT ATOMS

 N = NUMBER OF NEIGHBORS AT DISTANCE R
    ATOM  N     R/ANG      R/AU   NEIGHBORS (ATOM LABELS AND CELL INDICES)
   1 SR   8     2.6086     4.9295   10 O    0 0 0   10 O    0 0 1   12 O    0 0 0
                                    12 O    0 0 1   14 O    0-1 0   14 O    0-1 1
                                    16 O    0 0 0   16 O    0 0 1
   1 SR   8     3.2652     6.1704    5 CU   0-1 0    5 CU   0-1 1    6 CU   0-1 0
                                     6 CU   0-1 1    7 CU   0 0 0    7 CU   0 0 1
                                     8 CU   0 0 0    8 CU   0 0 1
   1 SR   2     3.4338     6.4889    1 SR   0 0-1    1 SR   0 0 1
   1 SR   4     3.9278     7.4226    3 SR   0 0 0    3 SR   0-1 0    4 SR   0 0 0
                                     4 SR   1 0 0
   1 SR  16     4.7152     8.9104    9 O    0 0 0    9 O    0 0 1    9 O    0-1 0
                                     9 O    0-1 1   11 O    0 0 0   11 O    0 0 1
                                    11 O    1 0 0   11 O    1 0 1   13 O    0-1 0
                                    13 O    0-1 1   13 O    1-1 0   13 O    1-1 1
                                    15 O    0 0 0   15 O    0 0 1   15 O    0-1 0
                                    15 O    0-1 1
   1 SR   8     5.2172     9.8590    3 SR   0 0 1    3 SR   0 0-1    3 SR   0-1-1
                                     3 SR   0-1 1    4 SR   0 0-1    4 SR   0 0 1
                                     4 SR   1 0 1    4 SR   1 0-1

   5 CU   4     1.9639     3.7113   13 O    1 0 0   14 O    0 0 0   15 O    0 0 0
                                    16 O    0 1 0
   5 CU   8     3.2652     6.1704    1 SR   0 1 0    1 SR   0 1-1    2 SR   1 0 0
                                     2 SR   1 0-1    3 SR   0 0-1    3 SR   0 0 0
                                     4 SR   1 1-1    4 SR   1 1 0
   5 CU   2     3.4338     6.4889    5 CU   0 0-1    5 CU   0 0 1
   5 CU   4     3.9278     7.4226    6 CU   0 0 0    6 CU   1 0 0    7 CU   0 0 0
                                     7 CU   0 1 0
   5 CU   8     3.9558     7.4753   13 O    1 0 1   13 O    1 0-1   14 O    0 0 1
                                    14 O    0 0-1   15 O    0 0 1   15 O    0 0-1
                                    16 O    0 1 1   16 O    0 1-1
   5 CU   8     4.3915     8.2987    9 O    0 0 0    9 O    1 0 0   10 O    1 1 0
                                    10 O    0 1 0   11 O    1 0 0   11 O    1 1 0
                                    12 O    0 1 0   12 O    0 0 0

   6 CU   4     1.9639     3.7113    9 O    0 0 0   10 O    0 1 0   13 O    0 0 0
                                    14 O    0 0 0
   6 CU   8     3.2652     6.1704    1 SR   0 1 0    1 SR   0 1-1    2 SR   0 0 0
                                     2 SR   0 0-1    3 SR   0 0-1    3 SR   0 0 0
                                     4 SR   0 1-1    4 SR   0 1 0
   6 CU   2     3.4338     6.4889    6 CU   0 0-1    6 CU   0 0 1
   6 CU   4     3.9278     7.4226    5 CU   0 0 0    5 CU  -1 0 0    8 CU   0 0 0
                                     8 CU   0 1 0
   6 CU   8     3.9558     7.4753    9 O    0 0 1    9 O    0 0-1   10 O    0 1 1
                                    10 O    0 1-1   13 O    0 0 1   13 O    0 0-1
                                    14 O    0 0-1   14 O    0 0 1
   6 CU   8     4.3915     8.2987   11 O    0 0 0   11 O    0 1 0   12 O    0 1 0
                                    12 O    0 0 0   15 O    0 0 0   15 O   -1 0 0
                                    16 O   -1 1 0   16 O    0 1 0

   7 CU   4     1.9639     3.7113   11 O    1 0 0   12 O    0 0 0   15 O    0 0 0
                                    16 O    0 0 0
   7 CU   8     3.2652     6.1704    1 SR   0 0 0    1 SR   0 0-1    2 SR   1 0 0
                                     2 SR   1 0-1    3 SR   0 0-1    3 SR   0 0 0
                                     4 SR   1 0-1    4 SR   1 0 0
   7 CU   2     3.4338     6.4889    7 CU   0 0-1    7 CU   0 0 1
   7 CU   4     3.9278     7.4226    5 CU   0 0 0    5 CU   0-1 0    8 CU   0 0 0
                                     8 CU   1 0 0
   7 CU   8     3.9558     7.4753   11 O    1 0 1   11 O    1 0-1   12 O    0 0 1
                                    12 O    0 0-1   15 O    0 0 1   15 O    0 0-1
                                    16 O    0 0-1   16 O    0 0 1
   7 CU   8     4.3915     8.2987    9 O    0 0 0    9 O    1 0 0   10 O    1 0 0
                                    10 O    0 0 0   13 O    1 0 0   13 O    1-1 0
                                    14 O    0-1 0   14 O    0 0 0

   8 CU   4     1.9639     3.7113    9 O    0 0 0   10 O    0 0 0   11 O    0 0 0
                                    12 O    0 0 0
   8 CU   8     3.2652     6.1704    1 SR   0 0 0    1 SR   0 0-1    2 SR   0 0 0
                                     2 SR   0 0-1    3 SR   0 0-1    3 SR   0 0 0
                                     4 SR   0 0-1    4 SR   0 0 0
   8 CU   2     3.4338     6.4889    8 CU   0 0-1    8 CU   0 0 1
   8 CU   4     3.9278     7.4226    6 CU   0 0 0    6 CU   0-1 0    7 CU   0 0 0
                                     7 CU  -1 0 0
   8 CU   8     3.9558     7.4753    9 O    0 0 1    9 O    0 0-1   10 O    0 0-1
                                    10 O    0 0 1   11 O    0 0 1   11 O    0 0-1
                                    12 O    0 0-1   12 O    0 0 1
   8 CU   8     4.3915     8.2987   13 O    0-1 0   13 O    0 0 0   14 O    0 0 0
                                    14 O    0-1 0   15 O   -1 0 0   15 O    0 0 0
                                    16 O    0 0 0   16 O   -1 0 0

   9 O    2     1.9639     3.7113    6 CU   0 0 0    8 CU   0 0 0
   9 O    4     2.6086     4.9295    2 SR   0 0 0    2 SR   0 0-1    3 SR   0 0 0
                                     3 SR   0 0-1
   9 O    4     2.7774     5.2485   11 O    0 0 0   12 O    0 0 0   13 O    0 0 0
                                    14 O    0 0 0
   9 O    2     3.4338     6.4889    9 O    0 0-1    9 O    0 0 1
   9 O    4     3.9278     7.4226   10 O    0 0 0   10 O    0 1 0   15 O    0 0 0
                                    15 O   -1 0 0
   9 O    4     3.9558     7.4753    6 CU   0 0-1    6 CU   0 0 1    8 CU   0 0-1
                                     8 CU   0 0 1

  11 O    2     1.9639     3.7113    7 CU  -1 0 0    8 CU   0 0 0
  11 O    4     2.6086     4.9295    2 SR   0 0 0    2 SR   0 0-1    4 SR   0 0 0
                                     4 SR   0 0-1
  11 O    4     2.7774     5.2485    9 O    0 0 0   10 O    0 0 0   15 O   -1 0 0
                                    16 O   -1 0 0
  11 O    2     3.4338     6.4889   11 O    0 0-1   11 O    0 0 1
  11 O    4     3.9278     7.4226   12 O    0 0 0   12 O   -1 0 0   13 O    0 0 0
                                    13 O    0-1 0
  11 O    4     3.9558     7.4753    7 CU  -1 0-1    7 CU  -1 0 1    8 CU   0 0-1
                                     8 CU   0 0 1

  13 O    2     1.9639     3.7113    5 CU  -1 0 0    6 CU   0 0 0
  13 O    4     2.6086     4.9295    2 SR   0 0 0    2 SR   0 0-1    4 SR   0 1 0
                                     4 SR   0 1-1
  13 O    4     2.7774     5.2485    9 O    0 0 0   10 O    0 1 0   15 O   -1 0 0
                                    16 O   -1 1 0
  13 O    2     3.4338     6.4889   13 O    0 0-1   13 O    0 0 1
  13 O    4     3.9278     7.4226   11 O    0 0 0   11 O    0 1 0   14 O    0 0 0
                                    14 O   -1 0 0
  13 O    4     3.9558     7.4753    5 CU  -1 0-1    5 CU  -1 0 1    6 CU   0 0-1
                                     6 CU   0 0 1

  15 O    2     1.9639     3.7113    5 CU   0 0 0    7 CU   0 0 0
  15 O    4     2.6086     4.9295    2 SR   1 0 0    2 SR   1 0-1    3 SR   0 0 0
                                     3 SR   0 0-1
  15 O    4     2.7774     5.2485   11 O    1 0 0   12 O    0 0 0   13 O    1 0 0
                                    14 O    0 0 0
  15 O    2     3.4338     6.4889   15 O    0 0-1   15 O    0 0 1
  15 O    4     3.9278     7.4226    9 O    0 0 0    9 O    1 0 0   16 O    0 0 0
                                    16 O    0 1 0
  15 O    4     3.9558     7.4753    5 CU   0 0-1    5 CU   0 0 1    7 CU   0 0-1
                                     7 CU   0 0 1


 SYMMETRY ALLOWED INTERNAL DEGREE(S) OF FREEDOM:   6
 TTTTTTTTTTTTTTTTTTTTTTTTTTTTTT SYMM        TELAPSE        2.67 TCPU        0.59
 TTTTTTTTTTTTTTTTTTTTTTTTTTTTTT INT_SCREEN  TELAPSE        2.94 TCPU        0.81
 INFORMATION **** EXCBUF **** EXCH. BIPO BUFFER: WORDS USED =     4023441

 DFT PARAMETERS

     ATOM       ELECTRONS   NET CHARGE   R(ANGSTROM)
   1 238  SR      2.0000      0.0000     2.15000000
   5 229  CU     19.0000      0.0000     1.28000000
   9 208  O       6.0000      0.0000     0.74000000
[golub227:50353] 23 more processes have sent help message help-mpi-btl-base.txt / btl:no-nics
[golub227:50353] Set MCA parameter "orte_base_help_aggregate" to 0 to see all help / error messages

 SIZE OF GRID=      45169
 TTTTTTTTTTTTTTTTTTTTTTTTTTTTTT MAKE_GRID2  TELAPSE        8.98 TCPU        5.84
 BECKE WEIGHT FUNCTION
 RADSAFE =     2.00
 TOLERANCES - DENSITY:10**- 6; POTENTIAL:10**- 9; GRID WGT:10**-14

 RADIAL INTEGRATION  - INTERVALS (POINTS,UPPER LIMIT):            1( 75,  4.0*R)

 ANGULAR INTEGRATION - INTERVALS (ACCURACY LEVEL [N. POINTS] UPPER LIMIT):
  1(  4[  86]   0.2)  2(  8[ 194]   0.5)  3( 12[ 350]   0.9)  4( 16[ 974]   3.5)
  5( 12[ 350]9999.0)
 TTTTTTTTTTTTTTTTTTTTTTTTTTTTTT INT_CALC    TELAPSE        9.04 TCPU        5.90
 EEEEEEEEEE INT_CALC TERMINATION  DATE 20 11 2017 TIME 00:21:56.1

 *******************************************************************************
 Generated by CrystalWriter                                                      
 CRYSTAL - SCF - TYPE OF CALCULATION :  UNRESTRICTED OPEN SHELL
 *******************************************************************************

 CAPPA:IS1  4;IS2  4;IS3  4; K PTS MONK NET  27; SYMMOPS:K SPACE   8;G SPACE   8

 TTTTTTTTTTTTTTTTTTTTTTTTTTTTTT SDIK        TELAPSE        9.09 TCPU        5.94

 AAAAAAAAAAAAAAAAAAAAAAAAAAAAAAAAAAAAAAAAAAAAAAAAAAAAAAAAAAAAAAAAAAAAAAAAAAAAAAA
         ATOMIC WAVEFUNCTION(S)


 NUCLEAR CHARGE  2.0  SYMMETRY SPECIES            S
 N. ELECTRONS    2.0  NUMBER OF PRIMITIVE GTOS    8
                      NUMBER OF CONTRACTED GTOS   3
                      NUMBER OF CLOSED SHELLS     1
                      OPEN SHELL OCCUPATION       0

  ZNUC SCFIT  TOTAL HF ENERGY   KINETIC ENERGY   VIRIAL THEOREM ACCURACY
   2.0   2    4.768442247E-02  9.318589797E-01 -9.488287139E-01  3.2E-06

 NUCLEAR CHARGE 19.0  SYMMETRY SPECIES            S    P    D
 N. ELECTRONS   19.0  NUMBER OF PRIMITIVE GTOS   14    9    7
                      NUMBER OF CONTRACTED GTOS   4    3    3
                      NUMBER OF CLOSED SHELLS     2    1    0
                      OPEN SHELL OCCUPATION       0    0    9

  ZNUC SCFIT  TOTAL HF ENERGY   KINETIC ENERGY   VIRIAL THEOREM ACCURACY
  19.0  29   -1.960760767E+02  1.241876446E+02 -2.578869438E+00  4.6E-06

 NUCLEAR CHARGE  6.0  SYMMETRY SPECIES            S    P
 N. ELECTRONS    6.0  NUMBER OF PRIMITIVE GTOS   10    9
                      NUMBER OF CONTRACTED GTOS   3    3
                      NUMBER OF CLOSED SHELLS     1    0
                      OPEN SHELL OCCUPATION       0    4

  ZNUC SCFIT  TOTAL HF ENERGY   KINETIC ENERGY   VIRIAL THEOREM ACCURACY
   6.0  12   -1.570132578E+01  1.165279602E+01 -2.347429900E+00  3.6E-06

 AAAAAAAAAAAAAAAAAAAAAAAAAAAAAAAAAAAAAAAAAAAAAAAAAAAAAAAAAAAAAAAAAAAAAAAAAAAAAAA

 CHARGE NORMALIZATION FACTOR   1.00000000
 TOTAL ATOMIC CHARGES:
   2.0000000   2.0000000   2.0000000   2.0000000  19.0000000  19.0000000
  19.0000000  19.0000000   6.0000000   6.0000000   6.0000000   6.0000000
   6.0000000   6.0000000   6.0000000   6.0000000
 SUMMED SPIN DENSITY           0.00000000
 TOTAL ATOMIC SPINS  :
   0.0000000   0.0000000   0.0000000   0.0000000   1.0000000  -1.0000000
   1.0000000  -1.0000000   0.0000000   0.0000000   0.0000000   0.0000000
   0.0000000   0.0000000   0.0000000   0.0000000
 TTTTTTTTTTTTTTTTTTTTTTTTTTTTTT MOQGAD      TELAPSE        9.40 TCPU        6.25
 TTTTTTTTTTTTTTTTTTTTTTTTTTTTTT SHELLXN     TELAPSE       79.26 TCPU       75.94
 TTTTTTTTTTTTTTTTTTTTTTTTTTTTTT MONMO3      TELAPSE       83.81 TCPU       80.50
 NUMERICALLY INTEGRATED DENSITY     66.0001976496     66.0001976495
 TTTTTTTTTTTTTTTTTTTTTTTTTTTTTT NUMDFT      TELAPSE       84.22 TCPU       80.90
 CYC   0 ETOT(AU) -9.150173734632E+02 DETOT -9.15E+02 tst  0.00E+00 PX  1.00E+00
 CYCLE  0 WAVE FUNCTION SAVED IN FORTRAN UNIT 79
 TTTTTTTTTTTTTTTTTTTTTTTTTTTTTT FDIK        TELAPSE       85.71 TCPU       82.26
 SPIN LOCKING: NO ENERGY GAP COMPUTED
 TTTTTTTTTTTTTTTTTTTTTTTTTTTTTT PDIG        TELAPSE       85.86 TCPU       82.41
 CHARGE NORMALIZATION FACTOR   1.00000000
 TOTAL ATOMIC CHARGES:
   0.1449690   0.1449690   0.1449690   0.1449690  17.7853595  17.7853580
  17.7853597  17.7853596   7.5418886   7.5418886   7.5277831   7.5277831
   7.5277837   7.5277837   7.5418882   7.5418882
 SUMMED SPIN DENSITY           0.00000000
 TOTAL ATOMIC SPINS  :
   0.0000000   0.0000000   0.0000000   0.0000000   0.6841550  -0.6841552
   0.6841551  -0.6841551  -0.0636453  -0.0636453  -0.0000001  -0.0000001
   0.0000001   0.0000001   0.0636454   0.0636454
 TTTTTTTTTTTTTTTTTTTTTTTTTTTTTT MOQGAD      TELAPSE       85.88 TCPU       82.42
 TTTTTTTTTTTTTTTTTTTTTTTTTTTTTT SHELLXN     TELAPSE      160.25 TCPU      156.81
 TTTTTTTTTTTTTTTTTTTTTTTTTTTTTT MONMO3      TELAPSE      165.05 TCPU      161.60
 NUMERICALLY INTEGRATED DENSITY     66.0003993547     66.0003993530
 TTTTTTTTTTTTTTTTTTTTTTTTTTTTTT NUMDFT      TELAPSE      166.30 TCPU      162.85
 CYC   1 ETOT(AU) -9.193709779062E+02 DETOT -4.35E+00 tst  0.00E+00 PX  1.00E+00
 CYCLE  1 WAVE FUNCTION SAVED IN FORTRAN UNIT 79
 TTTTTTTTTTTTTTTTTTTTTTTTTTTTTT FDIK        TELAPSE      167.32 TCPU      163.56
 SPIN LOCKING: NO ENERGY GAP COMPUTED
 TTTTTTTTTTTTTTTTTTTTTTTTTTTTTT PDIG        TELAPSE      167.48 TCPU      163.73
 CHARGE NORMALIZATION FACTOR   1.00000000
 TOTAL ATOMIC CHARGES:
   0.1513828   0.1513828   0.1513828   0.1513828  17.9002726  17.9002780
  17.9003377  17.9002850   7.4827637   7.4827637   7.4655387   7.4655387
   7.4655670   7.4655670   7.4827784   7.4827784
 SUMMED SPIN DENSITY           0.00000000
 TOTAL ATOMIC SPINS  :
  -0.0000008  -0.0000008  -0.0000008  -0.0000008   0.6194776  -0.6195833
   0.6194476  -0.6195528  -0.0768896  -0.0768896   0.0000427   0.0000427
   0.0000490   0.0000490   0.0769049   0.0769049
 TTTTTTTTTTTTTTTTTTTTTTTTTTTTTT MOQGAD      TELAPSE      167.50 TCPU      163.75
 TTTTTTTTTTTTTTTTTTTTTTTTTTTTTT SHELLXN     TELAPSE      242.12 TCPU      238.07
 TTTTTTTTTTTTTTTTTTTTTTTTTTTTTT MONMO3      TELAPSE      246.63 TCPU      242.59
 NUMERICALLY INTEGRATED DENSITY     66.0004223506     66.0004223418
 TTTTTTTTTTTTTTTTTTTTTTTTTTTTTT NUMDFT      TELAPSE      247.81 TCPU      243.77
 CYC   2 ETOT(AU) -9.198562291965E+02 DETOT -4.85E-01 tst  1.37E-03 PX  9.34E-02
 CYCLE  2 WAVE FUNCTION SAVED IN FORTRAN UNIT 79
 TTTTTTTTTTTTTTTTTTTTTTTTTTTTTT FDIK        TELAPSE      249.06 TCPU      244.47
 SPIN LOCKING: NO ENERGY GAP COMPUTED
 TTTTTTTTTTTTTTTTTTTTTTTTTTTTTT PDIG        TELAPSE      249.28 TCPU      244.70
 CHARGE NORMALIZATION FACTOR   1.00000000
 TOTAL ATOMIC CHARGES:
   0.1573957   0.1573957   0.1573957   0.1573957  17.9749520  17.9749803
  17.9749112  17.9750020   7.4433811   7.4433811   7.4242848   7.4242848
   7.4242883   7.4242883   7.4433317   7.4433317
 SUMMED SPIN DENSITY           0.00000000
 TOTAL ATOMIC SPINS  :
   0.0000007   0.0000007   0.0000007   0.0000007   0.5847627  -0.5846990
   0.5847966  -0.5847294  -0.0871288  -0.0871288  -0.0000190  -0.0000190
  -0.0000227  -0.0000227   0.0871037   0.0871037
 TTTTTTTTTTTTTTTTTTTTTTTTTTTTTT MOQGAD      TELAPSE      249.32 TCPU      244.73
 TTTTTTTTTTTTTTTTTTTTTTTTTTTTTT SHELLXN     TELAPSE      323.89 TCPU      319.09
 TTTTTTTTTTTTTTTTTTTTTTTTTTTTTT MONMO3      TELAPSE      328.60 TCPU      323.81
 NUMERICALLY INTEGRATED DENSITY     66.0004377931     66.0004377992
 TTTTTTTTTTTTTTTTTTTTTTTTTTTTTT NUMDFT      TELAPSE      329.80 TCPU      325.01
 CYC   3 ETOT(AU) -9.200896208727E+02 DETOT -2.33E-01 tst  8.35E-04 PX  6.06E-02
 CYCLE  3 WAVE FUNCTION SAVED IN FORTRAN UNIT 79
 TTTTTTTTTTTTTTTTTTTTTTTTTTTTTT FDIK        TELAPSE      330.69 TCPU      325.23
 SPIN LOCKING: NO ENERGY GAP COMPUTED
 TTTTTTTTTTTTTTTTTTTTTTTTTTTTTT PDIG        TELAPSE      330.86 TCPU      325.40
 CHARGE NORMALIZATION FACTOR   1.00000000
 TOTAL ATOMIC CHARGES:
   0.1624322   0.1624322   0.1624322   0.1624322  18.0213589  18.0214598
  18.0213678  18.0214365   7.4180654   7.4180654   7.3980773   7.3980773
   7.3980711   7.3980711   7.4181103   7.4181103
 SUMMED SPIN DENSITY           0.00000000
 TOTAL ATOMIC SPINS  :
  -0.0000092  -0.0000092  -0.0000092  -0.0000092   0.5651242  -0.5651835
   0.5651259  -0.5651890  -0.0937057  -0.0937057   0.0000331   0.0000331
   0.0000256   0.0000256   0.0937266   0.0937266
 TTTTTTTTTTTTTTTTTTTTTTTTTTTTTT MOQGAD      TELAPSE      330.88 TCPU      325.42
 TTTTTTTTTTTTTTTTTTTTTTTTTTTTTT SHELLXN     TELAPSE      405.65 TCPU      400.26
 TTTTTTTTTTTTTTTTTTTTTTTTTTTTTT MONMO3      TELAPSE      425.34 TCPU      419.96
 NUMERICALLY INTEGRATED DENSITY     66.0004482493     66.0004482451
 TTTTTTTTTTTTTTTTTTTTTTTTTTTTTT NUMDFT      TELAPSE      426.95 TCPU      421.58
 CYC   4 ETOT(AU) -9.202058785201E+02 DETOT -1.16E-01 tst  2.86E-04 PX  4.05E-02
 CYCLE  4 WAVE FUNCTION SAVED IN FORTRAN UNIT 79
 TTTTTTTTTTTTTTTTTTTTTTTTTTTTTT FDIK        TELAPSE      427.93 TCPU      422.35
 SPIN LOCKING: NO ENERGY GAP COMPUTED
 TTTTTTTTTTTTTTTTTTTTTTTTTTTTTT PDIG        TELAPSE      428.16 TCPU      422.58
 CHARGE NORMALIZATION FACTOR   1.00000000
 TOTAL ATOMIC CHARGES:
   0.1663348   0.1663348   0.1663348   0.1663348  18.0450500  18.0451348
  18.0450468  18.0451316   7.4046037   7.4046037   7.3839614   7.3839614
   7.3839631   7.3839631   7.4046207   7.4046207
 SUMMED SPIN DENSITY           0.00000000
 TOTAL ATOMIC SPINS  :
   0.0000001   0.0000001   0.0000001   0.0000001   0.5642269  -0.5642152
   0.5642312  -0.5642297  -0.1007503  -0.1007503  -0.0000005  -0.0000005
  -0.0000041  -0.0000041   0.1007482   0.1007482
 TTTTTTTTTTTTTTTTTTTTTTTTTTTTTT MOQGAD      TELAPSE      428.20 TCPU      422.62
 TTTTTTTTTTTTTTTTTTTTTTTTTTTTTT SHELLXN     TELAPSE      502.75 TCPU      497.13
 TTTTTTTTTTTTTTTTTTTTTTTTTTTTTT MONMO3      TELAPSE      507.26 TCPU      501.64
 NUMERICALLY INTEGRATED DENSITY     66.0004553653     66.0004553692
 TTTTTTTTTTTTTTTTTTTTTTTTTTTTTT NUMDFT      TELAPSE      508.50 TCPU      502.88
 CYC   5 ETOT(AU) -9.202679905903E+02 DETOT -6.21E-02 tst  1.01E-04 PX  2.92E-02
 CYCLE  5 WAVE FUNCTION SAVED IN FORTRAN UNIT 79
 TTTTTTTTTTTTTTTTTTTTTTTTTTTTTT FDIK        TELAPSE      509.35 TCPU      503.30
 SPIN LOCKING: NO ENERGY GAP COMPUTED
 TTTTTTTTTTTTTTTTTTTTTTTTTTTTTT PDIG        TELAPSE      509.51 TCPU      503.47
 CHARGE NORMALIZATION FACTOR   1.00000000
 TOTAL ATOMIC CHARGES:
   0.1692612   0.1692612   0.1692612   0.1692612  18.0605253  18.0604856
  18.0605304  18.0604965   7.3956164   7.3956164   7.3746282   7.3746282
   7.3746278   7.3746278   7.3955864   7.3955864
 SUMMED SPIN DENSITY           0.00000000
 TOTAL ATOMIC SPINS  :
   0.0000018   0.0000018   0.0000018   0.0000018   0.5604465  -0.5604389
   0.5604368  -0.5604412  -0.1040968  -0.1040968   0.0000051   0.0000051
  -0.0000069  -0.0000069   0.1040933   0.1040933
 TTTTTTTTTTTTTTTTTTTTTTTTTTTTTT MOQGAD      TELAPSE      509.53 TCPU      503.49
 TTTTTTTTTTTTTTTTTTTTTTTTTTTTTT SHELLXN     TELAPSE      583.88 TCPU      577.90
 TTTTTTTTTTTTTTTTTTTTTTTTTTTTTT MONMO3      TELAPSE      588.50 TCPU      582.53
 NUMERICALLY INTEGRATED DENSITY     66.0004604317     66.0004604376
 TTTTTTTTTTTTTTTTTTTTTTTTTTTTTT NUMDFT      TELAPSE      589.70 TCPU      583.73
 CYC   6 ETOT(AU) -9.203019861714E+02 DETOT -3.40E-02 tst  4.64E-05 PX  2.13E-02
 CYCLE  6 WAVE FUNCTION SAVED IN FORTRAN UNIT 79
 TTTTTTTTTTTTTTTTTTTTTTTTTTTTTT FDIK        TELAPSE      590.69 TCPU      584.69
 SPIN LOCKING: NO ENERGY GAP COMPUTED
 TTTTTTTTTTTTTTTTTTTTTTTTTTTTTT PDIG        TELAPSE      590.97 TCPU      584.97
 CHARGE NORMALIZATION FACTOR   1.00000000
 TOTAL ATOMIC CHARGES:
   0.1713704   0.1713704   0.1713704   0.1713704  18.0683334  18.0683582
  18.0683343  18.0683646   7.3907067   7.3907067   7.3695749   7.3695749
   7.3695823   7.3695823   7.3907000   7.3907000
 SUMMED SPIN DENSITY           0.00000000
 TOTAL ATOMIC SPINS  :
  -0.0000010  -0.0000010  -0.0000010  -0.0000010   0.5600980  -0.5601000
   0.5600929  -0.5601053  -0.1066157  -0.1066157   0.0000071   0.0000071
   0.0000006   0.0000006   0.1066172   0.1066172
 TTTTTTTTTTTTTTTTTTTTTTTTTTTTTT MOQGAD      TELAPSE      591.00 TCPU      585.00
 TTTTTTTTTTTTTTTTTTTTTTTTTTTTTT SHELLXN     TELAPSE      665.33 TCPU      659.35
 TTTTTTTTTTTTTTTTTTTTTTTTTTTTTT MONMO3      TELAPSE      670.16 TCPU      664.19
 NUMERICALLY INTEGRATED DENSITY     66.0004640327     66.0004640350
 TTTTTTTTTTTTTTTTTTTTTTTTTTTTTT NUMDFT      TELAPSE      671.34 TCPU      665.37
 CYC   7 ETOT(AU) -9.203216425985E+02 DETOT -1.97E-02 tst  2.84E-05 PX  1.55E-02
 CYCLE  7 WAVE FUNCTION SAVED IN FORTRAN UNIT 79
 TTTTTTTTTTTTTTTTTTTTTTTTTTTTTT FDIK        TELAPSE      672.19 TCPU      665.78
 SPIN LOCKING: NO ENERGY GAP COMPUTED
 TTTTTTTTTTTTTTTTTTTTTTTTTTTTTT PDIG        TELAPSE      672.35 TCPU      665.95
 CHARGE NORMALIZATION FACTOR   1.00000000
 TOTAL ATOMIC CHARGES:
   0.1728320   0.1728320   0.1728320   0.1728320  18.0716043  18.0716043
  18.0716130  18.0716117   7.3883831   7.3883831   7.3671774   7.3671774
   7.3671832   7.3671832   7.3883757   7.3883757
 SUMMED SPIN DENSITY           0.00000000
 TOTAL ATOMIC SPINS  :
   0.0000002   0.0000002   0.0000002   0.0000002   0.5616192  -0.5616090
   0.5616155  -0.5616175  -0.1085244  -0.1085244  -0.0000062  -0.0000062
  -0.0000135  -0.0000135   0.1085396   0.1085396
 TTTTTTTTTTTTTTTTTTTTTTTTTTTTTT MOQGAD      TELAPSE      672.37 TCPU      665.97
 TTTTTTTTTTTTTTTTTTTTTTTTTTTTTT SHELLXN     TELAPSE      746.81 TCPU      740.42
 TTTTTTTTTTTTTTTTTTTTTTTTTTTTTT MONMO3      TELAPSE      751.68 TCPU      745.30
 NUMERICALLY INTEGRATED DENSITY     66.0004666238     66.0004666298
 TTTTTTTTTTTTTTTTTTTTTTTTTTTTTT NUMDFT      TELAPSE      752.87 TCPU      746.48
 CYC   8 ETOT(AU) -9.203335482744E+02 DETOT -1.19E-02 tst  1.77E-05 PX  1.14E-02
 CYCLE  8 WAVE FUNCTION SAVED IN FORTRAN UNIT 79
 TTTTTTTTTTTTTTTTTTTTTTTTTTTTTT FDIK        TELAPSE      754.02 TCPU      747.23
 SPIN LOCKING: NO ENERGY GAP COMPUTED
 TTTTTTTTTTTTTTTTTTTTTTTTTTTTTT PDIG        TELAPSE      754.23 TCPU      747.44
 CHARGE NORMALIZATION FACTOR   1.00000000
 TOTAL ATOMIC CHARGES:
   0.1738146   0.1738146   0.1738146   0.1738146  18.0721614  18.0721764
  18.0721585  18.0721806   7.3876066   7.3876066   7.3664069   7.3664069
   7.3664097   7.3664097   7.3876091   7.3876091
 SUMMED SPIN DENSITY           0.00000000
 TOTAL ATOMIC SPINS  :
   0.0000011   0.0000011   0.0000011   0.0000011   0.5641273  -0.5641202
   0.5641279  -0.5641311  -0.1100901  -0.1100901   0.0000031   0.0000031
  -0.0000021  -0.0000021   0.1100851   0.1100851
 TTTTTTTTTTTTTTTTTTTTTTTTTTTTTT MOQGAD      TELAPSE      754.26 TCPU      747.47
 TTTTTTTTTTTTTTTTTTTTTTTTTTTTTT SHELLXN     TELAPSE      832.78 TCPU      822.09
 TTTTTTTTTTTTTTTTTTTTTTTTTTTTTT MONMO3      TELAPSE      851.06 TCPU      840.39
 NUMERICALLY INTEGRATED DENSITY     66.0004685158     66.0004685224
 TTTTTTTTTTTTTTTTTTTTTTTTTTTTTT NUMDFT      TELAPSE      852.61 TCPU      841.94
 CYC   9 ETOT(AU) -9.203410961670E+02 DETOT -7.55E-03 tst  1.25E-05 PX  8.44E-03
 CYCLE  9 WAVE FUNCTION SAVED IN FORTRAN UNIT 79
 TTTTTTTTTTTTTTTTTTTTTTTTTTTTTT FDIK        TELAPSE      853.61 TCPU      842.57
 SPIN LOCKING: NO ENERGY GAP COMPUTED
 TTTTTTTTTTTTTTTTTTTTTTTTTTTTTT PDIG        TELAPSE      853.92 TCPU      842.88
 CHARGE NORMALIZATION FACTOR   1.00000000
 TOTAL ATOMIC CHARGES:
   0.1744265   0.1744265   0.1744265   0.1744265  18.0711137  18.0711013
  18.0711149  18.0711028   7.3878223   7.3878223   7.3666451   7.3666451
   7.3666452   7.3666452   7.3878182   7.3878182
 SUMMED SPIN DENSITY          -0.00000000
 TOTAL ATOMIC SPINS  :
  -0.0000005  -0.0000005  -0.0000005  -0.0000005   0.5670947  -0.5670742
   0.5670917  -0.5670830  -0.1113516  -0.1113516  -0.0000041  -0.0000041
  -0.0000090  -0.0000090   0.1113511   0.1113511
 TTTTTTTTTTTTTTTTTTTTTTTTTTTTTT MOQGAD      TELAPSE      853.95 TCPU      842.91
 TTTTTTTTTTTTTTTTTTTTTTTTTTTTTT SHELLXN     TELAPSE      928.92 TCPU      917.52
 TTTTTTTTTTTTTTTTTTTTTTTTTTTTTT MONMO3      TELAPSE      934.14 TCPU      922.74
 NUMERICALLY INTEGRATED DENSITY     66.0004699137     66.0004699210
 TTTTTTTTTTTTTTTTTTTTTTTTTTTTTT NUMDFT      TELAPSE      935.37 TCPU      923.97
 CYC  10 ETOT(AU) -9.203461090183E+02 DETOT -5.01E-03 tst  1.23E-05 PX  7.10E-03
 CYCLE 10 WAVE FUNCTION SAVED IN FORTRAN UNIT 79
 TTTTTTTTTTTTTTTTTTTTTTTTTTTTTT FDIK        TELAPSE      936.18 TCPU      924.40
 SPIN LOCKING: NO ENERGY GAP COMPUTED
 TTTTTTTTTTTTTTTTTTTTTTTTTTTTTT PDIG        TELAPSE      936.34 TCPU      924.56
 CHARGE NORMALIZATION FACTOR   1.00000000
 TOTAL ATOMIC CHARGES:
   0.1747724   0.1747724   0.1747724   0.1747724  18.0691728  18.0691768
  18.0691762  18.0691783   7.3885581   7.3885581   7.3674901   7.3674901
   7.3674935   7.3674935   7.3885615   7.3885615
 SUMMED SPIN DENSITY           0.00000000
 TOTAL ATOMIC SPINS  :
  -0.0000000  -0.0000000  -0.0000000  -0.0000000   0.5702525  -0.5702488
   0.5702503  -0.5702520  -0.1123792  -0.1123792   0.0000009   0.0000009
  -0.0000020  -0.0000020   0.1123794   0.1123794
 TTTTTTTTTTTTTTTTTTTTTTTTTTTTTT MOQGAD      TELAPSE      936.36 TCPU      924.58
 TTTTTTTTTTTTTTTTTTTTTTTTTTTTTT SHELLXN     TELAPSE     1012.28 TCPU      999.17
 TTTTTTTTTTTTTTTTTTTTTTTTTTTTTT MONMO3      TELAPSE     1017.43 TCPU     1004.32
 NUMERICALLY INTEGRATED DENSITY     66.0004709525     66.0004709611
 TTTTTTTTTTTTTTTTTTTTTTTTTTTTTT NUMDFT      TELAPSE     1018.61 TCPU     1005.51
 CYC  11 ETOT(AU) -9.203495911910E+02 DETOT -3.48E-03 tst  1.18E-05 PX  6.94E-03
 CYCLE 11 WAVE FUNCTION SAVED IN FORTRAN UNIT 79
 TTTTTTTTTTTTTTTTTTTTTTTTTTTTTT FDIK        TELAPSE     1019.97 TCPU     1006.33
 SPIN LOCKING: NO ENERGY GAP COMPUTED
 TTTTTTTTTTTTTTTTTTTTTTTTTTTTTT PDIG        TELAPSE     1020.19 TCPU     1006.55
 CHARGE NORMALIZATION FACTOR   1.00000000
 TOTAL ATOMIC CHARGES:
   0.1749199   0.1749199   0.1749199   0.1749199  18.0667076  18.0667161
  18.0667102  18.0667182   7.3896551   7.3896551   7.3687085   7.3687085
   7.3687100   7.3687100   7.3896606   7.3896606
 SUMMED SPIN DENSITY           0.00000000
 TOTAL ATOMIC SPINS  :
  -0.0000007  -0.0000007  -0.0000007  -0.0000007   0.5734126  -0.5734158
   0.5734085  -0.5734213  -0.1132698  -0.1132698   0.0000071   0.0000071
   0.0000051   0.0000051   0.1132670   0.1132670
 TTTTTTTTTTTTTTTTTTTTTTTTTTTTTT MOQGAD      TELAPSE     1020.22 TCPU     1006.58
 TTTTTTTTTTTTTTTTTTTTTTTTTTTTTT SHELLXN     TELAPSE     1094.60 TCPU     1081.03
 TTTTTTTTTTTTTTTTTTTTTTTTTTTTTT MONMO3      TELAPSE     1099.16 TCPU     1085.59
 NUMERICALLY INTEGRATED DENSITY     66.0004717345     66.0004717411
 TTTTTTTTTTTTTTTTTTTTTTTTTTTTTT NUMDFT      TELAPSE     1100.37 TCPU     1086.80
 CYC  12 ETOT(AU) -9.203521203782E+02 DETOT -2.53E-03 tst  1.10E-05 PX  6.67E-03
 CYCLE 12 WAVE FUNCTION SAVED IN FORTRAN UNIT 79
 TTTTTTTTTTTTTTTTTTTTTTTTTTTTTT FDIK        TELAPSE     1101.38 TCPU     1087.23
 SPIN LOCKING: NO ENERGY GAP COMPUTED
 TTTTTTTTTTTTTTTTTTTTTTTTTTTTTT PDIG        TELAPSE     1101.55 TCPU     1087.39
 CHARGE NORMALIZATION FACTOR   1.00000000
 TOTAL ATOMIC CHARGES:
   0.1749317   0.1749317   0.1749317   0.1749317  18.0640709  18.0640726
  18.0640740  18.0640739   7.3908872   7.3908872   7.3701052   7.3701052
   7.3701063   7.3701063   7.3908921   7.3908921
 SUMMED SPIN DENSITY           0.00000000
 TOTAL ATOMIC SPINS  :
  -0.0000011  -0.0000011  -0.0000011  -0.0000011   0.5765204  -0.5765218
   0.5765194  -0.5765224  -0.1140459  -0.1140459  -0.0000013  -0.0000013
  -0.0000014  -0.0000014   0.1140530   0.1140530
 TTTTTTTTTTTTTTTTTTTTTTTTTTTTTT MOQGAD      TELAPSE     1101.57 TCPU     1087.41
 TTTTTTTTTTTTTTTTTTTTTTTTTTTTTT SHELLXN     TELAPSE     1176.02 TCPU     1161.93
 TTTTTTTTTTTTTTTTTTTTTTTTTTTTTT MONMO3      TELAPSE     1180.61 TCPU     1166.52
 NUMERICALLY INTEGRATED DENSITY     66.0004723216     66.0004723291
 TTTTTTTTTTTTTTTTTTTTTTTTTTTTTT NUMDFT      TELAPSE     1181.81 TCPU     1167.72
 CYC  13 ETOT(AU) -9.203540269116E+02 DETOT -1.91E-03 tst  1.01E-05 PX  6.32E-03
 CYCLE 13 WAVE FUNCTION SAVED IN FORTRAN UNIT 79
 TTTTTTTTTTTTTTTTTTTTTTTTTTTTTT FDIK        TELAPSE     1183.08 TCPU     1168.43
 SPIN LOCKING: NO ENERGY GAP COMPUTED
 TTTTTTTTTTTTTTTTTTTTTTTTTTTTTT PDIG        TELAPSE     1183.29 TCPU     1168.64
 CHARGE NORMALIZATION FACTOR   1.00000000
 TOTAL ATOMIC CHARGES:
   0.1748482   0.1748482   0.1748482   0.1748482  18.0613352  18.0613396
  18.0613361  18.0613401   7.3922093   7.3922093   7.3716062   7.3716062
   7.3716069   7.3716069   7.3922055   7.3922055
 SUMMED SPIN DENSITY           0.00000000
 TOTAL ATOMIC SPINS  :
  -0.0000002  -0.0000002  -0.0000002  -0.0000002   0.5794962  -0.5794958
   0.5794943  -0.5795001  -0.1147160  -0.1147160   0.0000016   0.0000016
   0.0000022   0.0000022   0.1147154   0.1147154
 TTTTTTTTTTTTTTTTTTTTTTTTTTTTTT MOQGAD      TELAPSE     1183.32 TCPU     1168.67
 TTTTTTTTTTTTTTTTTTTTTTTTTTTTTT SHELLXN     TELAPSE     1259.05 TCPU     1244.08
 TTTTTTTTTTTTTTTTTTTTTTTTTTTTTT MONMO3      TELAPSE     1262.96 TCPU     1248.00
 NUMERICALLY INTEGRATED DENSITY     66.0004727691     66.0004727766
 TTTTTTTTTTTTTTTTTTTTTTTTTTTTTT NUMDFT      TELAPSE     1264.15 TCPU     1249.18
 CYC  14 ETOT(AU) -9.203555160142E+02 DETOT -1.49E-03 tst  9.10E-06 PX  5.96E-03
 CYCLE 14 WAVE FUNCTION SAVED IN FORTRAN UNIT 79
 TTTTTTTTTTTTTTTTTTTTTTTTTTTTTT FDIK        TELAPSE     1264.95 TCPU     1249.85
 SPIN LOCKING: NO ENERGY GAP COMPUTED
 TTTTTTTTTTTTTTTTTTTTTTTTTTTTTT PDIG        TELAPSE     1265.09 TCPU     1250.00
 CHARGE NORMALIZATION FACTOR   1.00000000
 TOTAL ATOMIC CHARGES:
   0.1747047   0.1747047   0.1747047   0.1747047  18.0586937  18.0586935
  18.0586954  18.0586943   7.3935009   7.3935009   7.3730974   7.3730974
   7.3730982   7.3730982   7.3935056   7.3935056
 SUMMED SPIN DENSITY           0.00000000
 TOTAL ATOMIC SPINS  :
  -0.0000005  -0.0000005  -0.0000005  -0.0000005   0.5823440  -0.5823437
   0.5823445  -0.5823442  -0.1153011  -0.1153011   0.0000002   0.0000002
   0.0000011   0.0000011   0.1153004   0.1153004
 TTTTTTTTTTTTTTTTTTTTTTTTTTTTTT MOQGAD      TELAPSE     1265.11 TCPU     1250.02
 TTTTTTTTTTTTTTTTTTTTTTTTTTTTTT SHELLXN     TELAPSE     1339.27 TCPU     1324.24
 TTTTTTTTTTTTTTTTTTTTTTTTTTTTTT MONMO3      TELAPSE     1344.29 TCPU     1329.26
 NUMERICALLY INTEGRATED DENSITY     66.0004731089     66.0004731169
 TTTTTTTTTTTTTTTTTTTTTTTTTTTTTT NUMDFT      TELAPSE     1345.47 TCPU     1330.45
 CYC  15 ETOT(AU) -9.203567058748E+02 DETOT -1.19E-03 tst  8.16E-06 PX  5.59E-03
 CYCLE 15 WAVE FUNCTION SAVED IN FORTRAN UNIT 79
 MODIFIED BROYDEN: MIX%=  60 W0=  1.000000000000E-02 W=  5.792409727025E+00
 TTTTTTTTTTTTTTTTTTTTTTTTTTTTTT FDIK        TELAPSE     1346.25 TCPU     1330.64
 SPIN LOCKING: NO ENERGY GAP COMPUTED
 TTTTTTTTTTTTTTTTTTTTTTTTTTTTTT PDIG        TELAPSE     1346.45 TCPU     1330.84
 CHARGE NORMALIZATION FACTOR   1.00000000
 TOTAL ATOMIC CHARGES:
   0.1736109   0.1736109   0.1736109   0.1736109  18.0447386  18.0447469
  18.0447391  18.0447419   7.4004289   7.4004289   7.3812177   7.3812177
   7.3812103   7.3812103   7.4004381   7.4004381
 SUMMED SPIN DENSITY           0.00000000
 TOTAL ATOMIC SPINS  :
   0.0000010   0.0000010   0.0000010   0.0000010   0.5967009  -0.5966864
   0.5967141  -0.5966894  -0.1178238  -0.1178238  -0.0000308  -0.0000308
  -0.0000316  -0.0000316   0.1178647   0.1178647
 TTTTTTTTTTTTTTTTTTTTTTTTTTTTTT MOQGAD      TELAPSE     1346.47 TCPU     1330.86
 TTTTTTTTTTTTTTTTTTTTTTTTTTTTTT SHELLXN     TELAPSE     1421.01 TCPU     1405.47
 TTTTTTTTTTTTTTTTTTTTTTTTTTTTTT MONMO3      TELAPSE     1426.06 TCPU     1410.53
 NUMERICALLY INTEGRATED DENSITY     66.0004743915     66.0004743990
 TTTTTTTTTTTTTTTTTTTTTTTTTTTTTT NUMDFT      TELAPSE     1427.24 TCPU     1411.71
 CYC  16 ETOT(AU) -9.203609215922E+02 DETOT -4.22E-03 tst  2.32E-04 PX  2.84E-02
 CYCLE 16 WAVE FUNCTION SAVED IN FORTRAN UNIT 79
 MODIFIED BROYDEN: MIX%=  60 W0=  1.000000000000E-02 W=  1.365302506889E+01
 TTTTTTTTTTTTTTTTTTTTTTTTTTTTTT FDIK        TELAPSE     1429.17 TCPU     1413.15
 SPIN LOCKING: NO ENERGY GAP COMPUTED
 TTTTTTTTTTTTTTTTTTTTTTTTTTTTTT PDIG        TELAPSE     1429.41 TCPU     1413.39
 CHARGE NORMALIZATION FACTOR   1.00000000
 TOTAL ATOMIC CHARGES:
   0.1742605   0.1742605   0.1742605   0.1742605  18.0480415  18.0480415
  18.0480438  18.0480426   7.3986734   7.3986734   7.3790267   7.3790267
   7.3790289   7.3790289   7.3986652   7.3986652
 SUMMED SPIN DENSITY          -0.00000000
 TOTAL ATOMIC SPINS  :
   0.0000000   0.0000000   0.0000000   0.0000000   0.5927483  -0.5927459
   0.5927456  -0.5927476  -0.1174770  -0.1174770   0.0000011   0.0000011
  -0.0000001  -0.0000001   0.1174758   0.1174758
 TTTTTTTTTTTTTTTTTTTTTTTTTTTTTT MOQGAD      TELAPSE     1429.43 TCPU     1413.41
 TTTTTTTTTTTTTTTTTTTTTTTTTTTTTT SHELLXN     TELAPSE     1504.25 TCPU     1488.25
 TTTTTTTTTTTTTTTTTTTTTTTTTTTTTT MONMO3      TELAPSE     1508.49 TCPU     1492.49
 NUMERICALLY INTEGRATED DENSITY     66.0004745846     66.0004745937
 TTTTTTTTTTTTTTTTTTTTTTTTTTTTTT NUMDFT      TELAPSE     1509.69 TCPU     1493.69
 CYC  17 ETOT(AU) -9.203603126488E+02 DETOT  6.09E-04 tst  1.18E-05 PX  6.47E-03
 CYCLE 17 WAVE FUNCTION SAVED IN FORTRAN UNIT 79
 MODIFIED BROYDEN: MIX%=  60 W0=  1.000000000000E-02 W=  1.220791726741E+01
 TTTTTTTTTTTTTTTTTTTTTTTTTTTTTT FDIK        TELAPSE     1510.74 TCPU     1494.30
 SPIN LOCKING: NO ENERGY GAP COMPUTED
 TTTTTTTTTTTTTTTTTTTTTTTTTTTTTT PDIG        TELAPSE     1510.99 TCPU     1494.55
 CHARGE NORMALIZATION FACTOR   1.00000000
 TOTAL ATOMIC CHARGES:
   0.1742640   0.1742640   0.1742640   0.1742640  18.0480545  18.0480517
  18.0480541  18.0480535   7.3986389   7.3986389   7.3790451   7.3790451
   7.3790451   7.3790451   7.3986360   7.3986360
 SUMMED SPIN DENSITY          -0.00000000
 TOTAL ATOMIC SPINS  :
  -0.0000000  -0.0000000  -0.0000000  -0.0000000   0.5930725  -0.5930738
   0.5930729  -0.5930737  -0.1175225  -0.1175225   0.0000003   0.0000003
   0.0000006   0.0000006   0.1175226   0.1175226
 TTTTTTTTTTTTTTTTTTTTTTTTTTTTTT MOQGAD      TELAPSE     1511.01 TCPU     1494.57
 TTTTTTTTTTTTTTTTTTTTTTTTTTTTTT SHELLXN     TELAPSE     1585.36 TCPU     1568.97
 TTTTTTTTTTTTTTTTTTTTTTTTTTTTTT MONMO3      TELAPSE     1590.21 TCPU     1573.82
 NUMERICALLY INTEGRATED DENSITY     66.0004746051     66.0004746139
 TTTTTTTTTTTTTTTTTTTTTTTTTTTTTT NUMDFT      TELAPSE     1591.39 TCPU     1575.01
 CYC  18 ETOT(AU) -9.203603589481E+02 DETOT -4.63E-05 tst  7.43E-08 PX  5.34E-04
 CYCLE 18 WAVE FUNCTION SAVED IN FORTRAN UNIT 79
 MODIFIED BROYDEN: MIX%=  60 W0=  1.000000000000E-02 W=  1.236771783173E+01
 TTTTTTTTTTTTTTTTTTTTTTTTTTTTTT FDIK        TELAPSE     1592.71 TCPU     1576.00
 SPIN LOCKING: NO ENERGY GAP COMPUTED
 TTTTTTTTTTTTTTTTTTTTTTTTTTTTTT PDIG        TELAPSE     1592.91 TCPU     1576.19
 CHARGE NORMALIZATION FACTOR   1.00000000
 TOTAL ATOMIC CHARGES:
   0.1741920   0.1741920   0.1741920   0.1741920  18.0474066  18.0474032
  18.0474062  18.0474049   7.3989368   7.3989368   7.3794681   7.3794681
   7.3794681   7.3794681   7.3989326   7.3989326
 SUMMED SPIN DENSITY           0.00000000
 TOTAL ATOMIC SPINS  :
  -0.0000001  -0.0000001  -0.0000001  -0.0000001   0.5940918  -0.5940949
   0.5940922  -0.5940947  -0.1175846  -0.1175846   0.0000004   0.0000004
   0.0000007   0.0000007   0.1175864   0.1175864
 TTTTTTTTTTTTTTTTTTTTTTTTTTTTTT MOQGAD      TELAPSE     1592.93 TCPU     1576.21
 TTTTTTTTTTTTTTTTTTTTTTTTTTTTTT SHELLXN     TELAPSE     1667.28 TCPU     1650.63
 TTTTTTTTTTTTTTTTTTTTTTTTTTTTTT MONMO3      TELAPSE     1672.12 TCPU     1655.48
 NUMERICALLY INTEGRATED DENSITY     66.0004745862     66.0004745949
 TTTTTTTTTTTTTTTTTTTTTTTTTTTTTT NUMDFT      TELAPSE     1673.33 TCPU     1656.69
 CYC  19 ETOT(AU) -9.203604919591E+02 DETOT -1.33E-04 tst  5.83E-07 PX  1.52E-03
 CYCLE 19 WAVE FUNCTION SAVED IN FORTRAN UNIT 79
 MODIFIED BROYDEN: MIX%=  60 W0=  1.000000000000E-02 W=  1.242025569905E+01
 TTTTTTTTTTTTTTTTTTTTTTTTTTTTTT FDIK        TELAPSE     1674.06 TCPU     1657.31
 SPIN LOCKING: NO ENERGY GAP COMPUTED
 TTTTTTTTTTTTTTTTTTTTTTTTTTTTTT PDIG        TELAPSE     1674.22 TCPU     1657.48
 CHARGE NORMALIZATION FACTOR   1.00000000
 TOTAL ATOMIC CHARGES:
   0.1742518   0.1742518   0.1742518   0.1742518  18.0478334  18.0478295
  18.0478329  18.0478312   7.3987433   7.3987433   7.3791748   7.3791748
   7.3791749   7.3791749   7.3987399   7.3987399
 SUMMED SPIN DENSITY          -0.00000000
 TOTAL ATOMIC SPINS  :
  -0.0000000  -0.0000000  -0.0000000  -0.0000000   0.5932975  -0.5933000
   0.5932978  -0.5932998  -0.1175199  -0.1175199   0.0000005   0.0000005
   0.0000009   0.0000009   0.1175207   0.1175207
 TTTTTTTTTTTTTTTTTTTTTTTTTTTTTT MOQGAD      TELAPSE     1674.24 TCPU     1657.50
 TTTTTTTTTTTTTTTTTTTTTTTTTTTTTT SHELLXN     TELAPSE     1748.55 TCPU     1731.87
 TTTTTTTTTTTTTTTTTTTTTTTTTTTTTT MONMO3      TELAPSE     1753.43 TCPU     1736.76
 NUMERICALLY INTEGRATED DENSITY     66.0004745945     66.0004746033
 TTTTTTTTTTTTTTTTTTTTTTTTTTTTTT NUMDFT      TELAPSE     1754.65 TCPU     1737.97
 CYC  20 ETOT(AU) -9.203603828221E+02 DETOT  1.09E-04 tst  3.76E-07 PX  1.21E-03
 CYCLE 20 WAVE FUNCTION SAVED IN FORTRAN UNIT 79
 MODIFIED BROYDEN: MIX%=  60 W0=  1.000000000000E-02 W=  1.218567741623E+01
 TTTTTTTTTTTTTTTTTTTTTTTTTTTTTT FDIK        TELAPSE     1755.64 TCPU     1738.53
 SPIN LOCKING: NO ENERGY GAP COMPUTED
 TTTTTTTTTTTTTTTTTTTTTTTTTTTTTT PDIG        TELAPSE     1755.81 TCPU     1738.70
 CHARGE NORMALIZATION FACTOR   1.00000000
 TOTAL ATOMIC CHARGES:
   0.1739436   0.1739436   0.1739436   0.1739436  18.0456178  18.0456074
  18.0456171  18.0456098   7.3997024   7.3997024   7.3807379   7.3807379
   7.3807379   7.3807379   7.3997086   7.3997086
 SUMMED SPIN DENSITY           0.00000000
 TOTAL ATOMIC SPINS  :
   0.0000000   0.0000000   0.0000000   0.0000000   0.5975068  -0.5975112
   0.5975073  -0.5975114  -0.1178466  -0.1178466   0.0000017   0.0000017
   0.0000020   0.0000020   0.1178472   0.1178472
 TTTTTTTTTTTTTTTTTTTTTTTTTTTTTT MOQGAD      TELAPSE     1755.84 TCPU     1738.73
 TTTTTTTTTTTTTTTTTTTTTTTTTTTTTT SHELLXN     TELAPSE     1830.09 TCPU     1813.04
 TTTTTTTTTTTTTTTTTTTTTTTTTTTTTT MONMO3      TELAPSE     1834.95 TCPU     1817.90
 NUMERICALLY INTEGRATED DENSITY     66.0004745526     66.0004745612
 TTTTTTTTTTTTTTTTTTTTTTTTTTTTTT NUMDFT      TELAPSE     1836.14 TCPU     1819.10
 CYC  21 ETOT(AU) -9.203609340193E+02 DETOT -5.51E-04 tst  1.06E-05 PX  6.41E-03
 CYCLE 21 WAVE FUNCTION SAVED IN FORTRAN UNIT 79
 MODIFIED BROYDEN: MIX%=  60 W0=  1.000000000000E-02 W=  1.340716265233E+01
 TTTTTTTTTTTTTTTTTTTTTTTTTTTTTT FDIK        TELAPSE     1836.82 TCPU     1819.46
 SPIN LOCKING: NO ENERGY GAP COMPUTED
 TTTTTTTTTTTTTTTTTTTTTTTTTTTTTT PDIG        TELAPSE     1836.96 TCPU     1819.60
 CHARGE NORMALIZATION FACTOR   1.00000000
 TOTAL ATOMIC CHARGES:
   0.1733590   0.1733590   0.1733590   0.1733590  18.0414620  18.0414688
  18.0414622  18.0414707   7.4015808   7.4015808   7.3835957   7.3835957
   7.3835961   7.3835961   7.4015775   7.4015775
 SUMMED SPIN DENSITY          -0.00000000
 TOTAL ATOMIC SPINS  :
  -0.0000009  -0.0000009  -0.0000009  -0.0000009   0.6053194  -0.6053160
   0.6053211  -0.6053159  -0.1184038  -0.1184038  -0.0000004  -0.0000004
   0.0000011   0.0000011   0.1184006   0.1184006
 TTTTTTTTTTTTTTTTTTTTTTTTTTTTTT MOQGAD      TELAPSE     1836.98 TCPU     1819.62
 TTTTTTTTTTTTTTTTTTTTTTTTTTTTTT SHELLXN     TELAPSE     1911.47 TCPU     1894.18
 TTTTTTTTTTTTTTTTTTTTTTTTTTTTTT MONMO3      TELAPSE     1915.97 TCPU     1898.68
 NUMERICALLY INTEGRATED DENSITY     66.0004744744     66.0004744827
 TTTTTTTTTTTTTTTTTTTTTTTTTTTTTT NUMDFT      TELAPSE     1917.47 TCPU     1900.18
 CYC  22 ETOT(AU) -9.203618253463E+02 DETOT -8.91E-04 tst  3.85E-05 PX  1.20E-02
 CYCLE 22 WAVE FUNCTION SAVED IN FORTRAN UNIT 79
 MODIFIED BROYDEN: MIX%=  60 W0=  1.000000000000E-02 W=  1.681673512276E+01
 TTTTTTTTTTTTTTTTTTTTTTTTTTTTTT FDIK        TELAPSE     1918.42 TCPU     1900.73
 SPIN LOCKING: NO ENERGY GAP COMPUTED
 TTTTTTTTTTTTTTTTTTTTTTTTTTTTTT PDIG        TELAPSE     1918.59 TCPU     1900.90
 CHARGE NORMALIZATION FACTOR   1.00000000
 TOTAL ATOMIC CHARGES:
   0.1708608   0.1708608   0.1708608   0.1708608  18.0245839  18.0241271
  18.0245792  18.0241344   7.4089834   7.4089834   7.3957280   7.3957280
   7.3957365   7.3957365   7.4091182   7.4091182
 SUMMED SPIN DENSITY          -0.00000000
 TOTAL ATOMIC SPINS  :
  -0.0000043  -0.0000043  -0.0000043  -0.0000043   0.6329368  -0.6330944
   0.6329399  -0.6330894  -0.1196672  -0.1196672   0.0000618   0.0000618
   0.0000674   0.0000674   0.1197001   0.1197001
 TTTTTTTTTTTTTTTTTTTTTTTTTTTTTT MOQGAD      TELAPSE     1918.60 TCPU     1900.92
 TTTTTTTTTTTTTTTTTTTTTTTTTTTTTT SHELLXN     TELAPSE     1993.08 TCPU     1975.46
 TTTTTTTTTTTTTTTTTTTTTTTTTTTTTT MONMO3      TELAPSE     2011.69 TCPU     1994.09
 NUMERICALLY INTEGRATED DENSITY     66.0004739316     66.0004739408
 TTTTTTTTTTTTTTTTTTTTTTTTTTTTTT NUMDFT      TELAPSE     2013.43 TCPU     1995.83
 CYC  23 ETOT(AU) -9.203632607961E+02 DETOT -1.44E-03 tst  5.81E-04 PX  4.36E-02
 CYCLE 23 WAVE FUNCTION SAVED IN FORTRAN UNIT 79
 MODIFIED BROYDEN: MIX%=  60 W0=  1.000000000000E-02 W=  9.417545796794E+01
 TTTTTTTTTTTTTTTTTTTTTTTTTTTTTT FDIK        TELAPSE     2014.51 TCPU     1996.68
 SPIN LOCKING: NO ENERGY GAP COMPUTED
 TTTTTTTTTTTTTTTTTTTTTTTTTTTTTT PDIG        TELAPSE     2014.73 TCPU     1996.90
 CHARGE NORMALIZATION FACTOR   1.00000000
 TOTAL ATOMIC CHARGES:
   0.1710297   0.1710297   0.1710297   0.1710297  18.0255978  18.0258558
  18.0255967  18.0258585   7.4088872   7.4088872   7.3943563   7.3943563
   7.3943567   7.3943567   7.4088861   7.4088861
 SUMMED SPIN DENSITY          -0.00000000
 TOTAL ATOMIC SPINS  :
  -0.0000007  -0.0000007  -0.0000007  -0.0000007   0.6321744  -0.6320688
   0.6321728  -0.6320695  -0.1197356  -0.1197356  -0.0000335  -0.0000335
  -0.0000333  -0.0000333   0.1196994   0.1196994
 TTTTTTTTTTTTTTTTTTTTTTTTTTTTTT MOQGAD      TELAPSE     2014.75 TCPU     1996.92
 TTTTTTTTTTTTTTTTTTTTTTTTTTTTTT SHELLXN     TELAPSE     2089.31 TCPU     2071.54
 TTTTTTTTTTTTTTTTTTTTTTTTTTTTTT MONMO3      TELAPSE     2095.26 TCPU     2077.49
 NUMERICALLY INTEGRATED DENSITY     66.0004741010     66.0004741048
 TTTTTTTTTTTTTTTTTTTTTTTTTTTTTT NUMDFT      TELAPSE     2096.48 TCPU     2078.72
 CYC  24 ETOT(AU) -9.203632715880E+02 DETOT -1.08E-05 tst  4.55E-07 PX  1.52E-03
 CYCLE 24 WAVE FUNCTION SAVED IN FORTRAN UNIT 79
 MODIFIED BROYDEN: MIX%=  60 W0=  1.000000000000E-02 W=  1.409834012549E+02
 TTTTTTTTTTTTTTTTTTTTTTTTTTTTTT FDIK        TELAPSE     2097.37 TCPU     2079.07
 SPIN LOCKING: NO ENERGY GAP COMPUTED
 TTTTTTTTTTTTTTTTTTTTTTTTTTTTTT PDIG        TELAPSE     2097.53 TCPU     2079.24
 CHARGE NORMALIZATION FACTOR   1.00000000
 TOTAL ATOMIC CHARGES:
   0.1710356   0.1710356   0.1710356   0.1710356  18.0256152  18.0259671
  18.0256121  18.0259720   7.4087824   7.4087824   7.3943708   7.3943708
   7.3943717   7.3943717   7.4088208   7.4088208
 SUMMED SPIN DENSITY           0.00000000
 TOTAL ATOMIC SPINS  :
  -0.0000008  -0.0000008  -0.0000008  -0.0000008   0.6324129  -0.6322668
   0.6324143  -0.6322675  -0.1197725  -0.1197725  -0.0000452  -0.0000452
  -0.0000444  -0.0000444   0.1197172   0.1197172
 TTTTTTTTTTTTTTTTTTTTTTTTTTTTTT MOQGAD      TELAPSE     2097.55 TCPU     2079.25
 TTTTTTTTTTTTTTTTTTTTTTTTTTTTTT SHELLXN     TELAPSE     2172.23 TCPU     2153.96
 TTTTTTTTTTTTTTTTTTTTTTTTTTTTTT MONMO3      TELAPSE     2176.74 TCPU     2158.47
 NUMERICALLY INTEGRATED DENSITY     66.0004741096     66.0004741118
 TTTTTTTTTTTTTTTTTTTTTTTTTTTTTT NUMDFT      TELAPSE     2177.92 TCPU     2159.65
 CYC  25 ETOT(AU) -9.203632701234E+02 DETOT  1.46E-06 tst  4.00E-08 PX  3.30E-04
 CYCLE 25 WAVE FUNCTION SAVED IN FORTRAN UNIT 79
 MODIFIED BROYDEN: MIX%=  60 W0=  1.000000000000E-02 W=  1.086350505430E+02
 TTTTTTTTTTTTTTTTTTTTTTTTTTTTTT FDIK        TELAPSE     2178.63 TCPU     2160.08
 SPIN LOCKING: NO ENERGY GAP COMPUTED
 TTTTTTTTTTTTTTTTTTTTTTTTTTTTTT PDIG        TELAPSE     2178.77 TCPU     2160.22
 CHARGE NORMALIZATION FACTOR   1.00000000
 TOTAL ATOMIC CHARGES:
   0.1710215   0.1710215   0.1710215   0.1710215  18.0258874  18.0259014
  18.0258869  18.0259026   7.4088035   7.4088035   7.3942703   7.3942703
   7.3942712   7.3942712   7.4088229   7.4088229
 SUMMED SPIN DENSITY          -0.00000000
 TOTAL ATOMIC SPINS  :
   0.0000001   0.0000001   0.0000001   0.0000001   0.6303460  -0.6303431
   0.6303493  -0.6303437  -0.1196116  -0.1196116  -0.0000019  -0.0000019
  -0.0000013  -0.0000013   0.1196103   0.1196103
 TTTTTTTTTTTTTTTTTTTTTTTTTTTTTT MOQGAD      TELAPSE     2178.79 TCPU     2160.24
 TTTTTTTTTTTTTTTTTTTTTTTTTTTTTT SHELLXN     TELAPSE     2253.22 TCPU     2234.67
 TTTTTTTTTTTTTTTTTTTTTTTTTTTTTT MONMO3      TELAPSE     2258.09 TCPU     2239.55
 NUMERICALLY INTEGRATED DENSITY     66.0004740841     66.0004740908
 TTTTTTTTTTTTTTTTTTTTTTTTTTTTTT NUMDFT      TELAPSE     2259.27 TCPU     2240.72
 CYC  26 ETOT(AU) -9.203632739133E+02 DETOT -3.79E-06 tst  2.97E-06 PX  2.85E-03
 CYCLE 26 WAVE FUNCTION SAVED IN FORTRAN UNIT 79
 MODIFIED BROYDEN: MIX%=  60 W0=  1.000000000000E-02 W=  5.754560547082E+02
 TTTTTTTTTTTTTTTTTTTTTTTTTTTTTT FDIK        TELAPSE     2260.28 TCPU     2241.55
 SPIN LOCKING: NO ENERGY GAP COMPUTED
 TTTTTTTTTTTTTTTTTTTTTTTTTTTTTT PDIG        TELAPSE     2260.44 TCPU     2241.71
 CHARGE NORMALIZATION FACTOR   1.00000000
 TOTAL ATOMIC CHARGES:
   0.1710143   0.1710143   0.1710143   0.1710143  18.0258272  18.0258141
  18.0258276  18.0258162   7.4088764   7.4088764   7.3942938   7.3942938
   7.3942947   7.3942947   7.4088638   7.4088638
 SUMMED SPIN DENSITY           0.00000000
 TOTAL ATOMIC SPINS  :
  -0.0000000  -0.0000000  -0.0000000  -0.0000000   0.6308804  -0.6308838
   0.6308815  -0.6308835  -0.1196421  -0.1196421   0.0000002   0.0000002
   0.0000008   0.0000008   0.1196438   0.1196438
 TTTTTTTTTTTTTTTTTTTTTTTTTTTTTT MOQGAD      TELAPSE     2260.46 TCPU     2241.73
 TTTTTTTTTTTTTTTTTTTTTTTTTTTTTT SHELLXN     TELAPSE     2335.07 TCPU     2316.13
 TTTTTTTTTTTTTTTTTTTTTTTTTTTTTT MONMO3      TELAPSE     2339.63 TCPU     2320.69
 NUMERICALLY INTEGRATED DENSITY     66.0004740764     66.0004740835
 TTTTTTTTTTTTTTTTTTTTTTTTTTTTTT NUMDFT      TELAPSE     2340.81 TCPU     2321.87
 CYC  27 ETOT(AU) -9.203632747840E+02 DETOT -8.71E-07 tst  2.07E-07 PX  7.19E-04
 CYCLE 27 WAVE FUNCTION SAVED IN FORTRAN UNIT 79
 MODIFIED BROYDEN: MIX%=  60 W0=  1.000000000000E-02 W=  6.988100991361E+02
 TTTTTTTTTTTTTTTTTTTTTTTTTTTTTT FDIK        TELAPSE     2342.13 TCPU     2322.72
 SPIN LOCKING: NO ENERGY GAP COMPUTED
 TTTTTTTTTTTTTTTTTTTTTTTTTTTTTT PDIG        TELAPSE     2342.34 TCPU     2322.93
 CHARGE NORMALIZATION FACTOR   1.00000000
 TOTAL ATOMIC CHARGES:
   0.1710199   0.1710199   0.1710199   0.1710199  18.0257541  18.0257704
  18.0257559  18.0257716   7.4088878   7.4088878   7.3943291   7.3943291
   7.3943297   7.3943297   7.4088876   7.4088876
 SUMMED SPIN DENSITY           0.00000000
 TOTAL ATOMIC SPINS  :
  -0.0000000  -0.0000000  -0.0000000  -0.0000000   0.6307630  -0.6307556
   0.6307623  -0.6307554  -0.1196304  -0.1196304  -0.0000022  -0.0000022
  -0.0000021  -0.0000021   0.1196277   0.1196277
 TTTTTTTTTTTTTTTTTTTTTTTTTTTTTT MOQGAD      TELAPSE     2342.36 TCPU     2322.95
 TTTTTTTTTTTTTTTTTTTTTTTTTTTTTT SHELLXN     TELAPSE     2417.17 TCPU     2397.81
 TTTTTTTTTTTTTTTTTTTTTTTTTTTTTT MONMO3      TELAPSE     2421.72 TCPU     2402.35
 NUMERICALLY INTEGRATED DENSITY     66.0004740731     66.0004740798
 TTTTTTTTTTTTTTTTTTTTTTTTTTTTTT NUMDFT      TELAPSE     2422.89 TCPU     2403.53
 CYC  28 ETOT(AU) -9.203632747120E+02 DETOT  7.20E-08 tst  1.17E-08 PX  2.00E-04
 CYCLE 28 WAVE FUNCTION SAVED IN FORTRAN UNIT 79
 MODIFIED BROYDEN: MIX%=  60 W0=  1.000000000000E-02 W=  1.220504433489E+03
 TTTTTTTTTTTTTTTTTTTTTTTTTTTTTT FDIK        TELAPSE     2424.08 TCPU     2404.39
 SPIN LOCKING: NO ENERGY GAP COMPUTED
 TTTTTTTTTTTTTTTTTTTTTTTTTTTTTT PDIG        TELAPSE     2424.41 TCPU     2404.72
 CHARGE NORMALIZATION FACTOR   1.00000000
 TOTAL ATOMIC CHARGES:
   0.1710271   0.1710271   0.1710271   0.1710271  18.0258195  18.0258109
  18.0258201  18.0258131   7.4088320   7.4088320   7.3943247   7.3943247
   7.3943255   7.3943255   7.4088317   7.4088317
 SUMMED SPIN DENSITY           0.00000000
 TOTAL ATOMIC SPINS  :
  -0.0000000  -0.0000000  -0.0000000  -0.0000000   0.6309829  -0.6309843
   0.6309824  -0.6309840  -0.1196539  -0.1196539   0.0000006   0.0000006
   0.0000008   0.0000008   0.1196540   0.1196540
 TTTTTTTTTTTTTTTTTTTTTTTTTTTTTT MOQGAD      TELAPSE     2424.44 TCPU     2404.75
 TTTTTTTTTTTTTTTTTTTTTTTTTTTTTT SHELLXN     TELAPSE     2500.06 TCPU     2479.16
 TTTTTTTTTTTTTTTTTTTTTTTTTTTTTT MONMO3      TELAPSE     2504.59 TCPU     2483.69
 NUMERICALLY INTEGRATED DENSITY     66.0004740813     66.0004740882
 TTTTTTTTTTTTTTTTTTTTTTTTTTTTTT NUMDFT      TELAPSE     2505.79 TCPU     2484.89
 CYC  29 ETOT(AU) -9.203632748731E+02 DETOT -1.61E-07 tst  3.81E-08 PX  3.26E-04
 CYCLE 29 WAVE FUNCTION SAVED IN FORTRAN UNIT 79
 MODIFIED BROYDEN: MIX%=  60 W0=  1.000000000000E-02 W=  9.506217960120E+02
 TTTTTTTTTTTTTTTTTTTTTTTTTTTTTT FDIK        TELAPSE     2506.73 TCPU     2485.58
 SPIN LOCKING: NO ENERGY GAP COMPUTED
 TTTTTTTTTTTTTTTTTTTTTTTTTTTTTT PDIG        TELAPSE     2506.90 TCPU     2485.74
 CHARGE NORMALIZATION FACTOR   1.00000000
 TOTAL ATOMIC CHARGES:
   0.1710291   0.1710291   0.1710291   0.1710291  18.0258132  18.0257693
  18.0258104  18.0257721   7.4088485   7.4088485   7.3943334   7.3943334
   7.3943339   7.3943339   7.4088435   7.4088435
 SUMMED SPIN DENSITY           0.00000000
 TOTAL ATOMIC SPINS  :
   0.0000001   0.0000001   0.0000001   0.0000001   0.6308759  -0.6308933
   0.6308774  -0.6308930  -0.1196372  -0.1196372   0.0000050   0.0000050
   0.0000054   0.0000054   0.1196431   0.1196431
 TTTTTTTTTTTTTTTTTTTTTTTTTTTTTT MOQGAD      TELAPSE     2506.93 TCPU     2485.78
 TTTTTTTTTTTTTTTTTTTTTTTTTTTTTT SHELLXN     TELAPSE     2582.10 TCPU     2561.01
 TTTTTTTTTTTTTTTTTTTTTTTTTTTTTT MONMO3      TELAPSE     2586.30 TCPU     2565.22
 NUMERICALLY INTEGRATED DENSITY     66.0004740792     66.0004740866
 TTTTTTTTTTTTTTTTTTTTTTTTTTTTTT NUMDFT      TELAPSE     2587.50 TCPU     2566.41
 CYC  30 ETOT(AU) -9.203632747890E+02 DETOT  8.41E-08 tst  9.82E-09 PX  1.57E-04
 CYCLE 30 WAVE FUNCTION SAVED IN FORTRAN UNIT 79
 MODIFIED BROYDEN: MIX%=  60 W0=  1.000000000000E-02 W=  1.945637636066E+03
 TTTTTTTTTTTTTTTTTTTTTTTTTTTTTT FDIK        TELAPSE     2588.62 TCPU     2567.34
 SPIN LOCKING: NO ENERGY GAP COMPUTED
 TTTTTTTTTTTTTTTTTTTTTTTTTTTTTT PDIG        TELAPSE     2588.79 TCPU     2567.50
 CHARGE NORMALIZATION FACTOR   1.00000000
 TOTAL ATOMIC CHARGES:
   0.1710253   0.1710253   0.1710253   0.1710253  18.0257744  18.0257834
  18.0257738  18.0257856   7.4088594   7.4088594   7.3943347   7.3943347
   7.3943355   7.3943355   7.4088612   7.4088612
 SUMMED SPIN DENSITY           0.00000000
 TOTAL ATOMIC SPINS  :
  -0.0000000  -0.0000000  -0.0000000  -0.0000000   0.6308905  -0.6308868
   0.6308908  -0.6308865  -0.1196401  -0.1196401  -0.0000014  -0.0000014
  -0.0000011  -0.0000011   0.1196386   0.1196386
 TTTTTTTTTTTTTTTTTTTTTTTTTTTTTT MOQGAD      TELAPSE     2588.81 TCPU     2567.52
 TTTTTTTTTTTTTTTTTTTTTTTTTTTTTT SHELLXN     TELAPSE     2663.26 TCPU     2642.05
 TTTTTTTTTTTTTTTTTTTTTTTTTTTTTT MONMO3      TELAPSE     2669.66 TCPU     2648.45
 NUMERICALLY INTEGRATED DENSITY     66.0004740770     66.0004740838
 TTTTTTTTTTTTTTTTTTTTTTTTTTTTTT NUMDFT      TELAPSE     2670.84 TCPU     2649.63
 CYC  31 ETOT(AU) -9.203632747986E+02 DETOT -9.55E-09 tst  1.26E-10 PX  2.22E-05
 CYCLE 31 WAVE FUNCTION SAVED IN FORTRAN UNIT 79
 MODIFIED BROYDEN: MIX%=  60 W0=  1.000000000000E-02 W=  5.177395344201E+03
 TTTTTTTTTTTTTTTTTTTTTTTTTTTTTT FDIK        TELAPSE     2671.83 TCPU     2650.22
 SPIN LOCKING: NO ENERGY GAP COMPUTED
 TTTTTTTTTTTTTTTTTTTTTTTTTTTTTT PDIG        TELAPSE     2671.99 TCPU     2650.38
 CHARGE NORMALIZATION FACTOR   1.00000000
 TOTAL ATOMIC CHARGES:
   0.1710242   0.1710242   0.1710242   0.1710242  18.0257788  18.0257751
  18.0257793  18.0257770   7.4088632   7.4088632   7.3943354   7.3943354
   7.3943361   7.3943361   7.4088618   7.4088618
 SUMMED SPIN DENSITY           0.00000000
 TOTAL ATOMIC SPINS  :
   0.0000000   0.0000000   0.0000000   0.0000000   0.6308889  -0.6308900
   0.6308888  -0.6308898  -0.1196391  -0.1196391   0.0000002   0.0000002
   0.0000003   0.0000003   0.1196396   0.1196396
 TTTTTTTTTTTTTTTTTTTTTTTTTTTTTT MOQGAD      TELAPSE     2672.02 TCPU     2650.41
 TTTTTTTTTTTTTTTTTTTTTTTTTTTTTT SHELLXN     TELAPSE     2746.83 TCPU     2725.28
 TTTTTTTTTTTTTTTTTTTTTTTTTTTTTT MONMO3      TELAPSE     2752.59 TCPU     2731.05
 NUMERICALLY INTEGRATED DENSITY     66.0004740764     66.0004740833
 TTTTTTTTTTTTTTTTTTTTTTTTTTTTTT NUMDFT      TELAPSE     2753.77 TCPU     2732.23
 CYC  32 ETOT(AU) -9.203632748026E+02 DETOT -4.03E-09 tst  5.96E-12 PX  5.83E-06
 CYCLE 32 WAVE FUNCTION SAVED IN FORTRAN UNIT 79
 MODIFIED BROYDEN: MIX%=  60 W0=  1.000000000000E-02 W=  9.183807053106E+03
 TTTTTTTTTTTTTTTTTTTTTTTTTTTTTT FDIK        TELAPSE     2755.04 TCPU     2733.14
 SPIN LOCKING: NO ENERGY GAP COMPUTED
 TTTTTTTTTTTTTTTTTTTTTTTTTTTTTT PDIG        TELAPSE     2755.20 TCPU     2733.31
 CHARGE NORMALIZATION FACTOR   1.00000000
 TOTAL ATOMIC CHARGES:
   0.1710245   0.1710245   0.1710245   0.1710245  18.0257867  18.0257849
  18.0257861  18.0257870   7.4088573   7.4088573   7.3943318   7.3943318
   7.3943323   7.3943323   7.4088573   7.4088573
 SUMMED SPIN DENSITY           0.00000000
 TOTAL ATOMIC SPINS  :
   0.0000000   0.0000000   0.0000000   0.0000000   0.6308859  -0.6308861
   0.6308863  -0.6308858  -0.1196407  -0.1196407  -0.0000002  -0.0000002
   0.0000001   0.0000001   0.1196407   0.1196407
 TTTTTTTTTTTTTTTTTTTTTTTTTTTTTT MOQGAD      TELAPSE     2755.24 TCPU     2733.34
 TTTTTTTTTTTTTTTTTTTTTTTTTTTTTT SHELLXN     TELAPSE     2829.23 TCPU     2807.40
 TTTTTTTTTTTTTTTTTTTTTTTTTTTTTT MONMO3      TELAPSE     2834.21 TCPU     2812.39
 NUMERICALLY INTEGRATED DENSITY     66.0004740773     66.0004740842
 TTTTTTTTTTTTTTTTTTTTTTTTTTTTTT NUMDFT      TELAPSE     2835.39 TCPU     2813.56
 CYC  33 ETOT(AU) -9.203632748113E+02 DETOT -8.64E-09 tst  2.07E-11 PX  6.62E-06
 CYCLE 33 WAVE FUNCTION SAVED IN FORTRAN UNIT 79
 MODIFIED BROYDEN: MIX%=  60 W0=  1.000000000000E-02 W=  3.045226742911E+04
 TTTTTTTTTTTTTTTTTTTTTTTTTTTTTT FDIK        TELAPSE     2836.17 TCPU     2813.96
 SPIN LOCKING: NO ENERGY GAP COMPUTED
 TTTTTTTTTTTTTTTTTTTTTTTTTTTTTT PDIG        TELAPSE     2836.34 TCPU     2814.12
 CHARGE NORMALIZATION FACTOR   1.00000000
 TOTAL ATOMIC CHARGES:
   0.1710245   0.1710245   0.1710245   0.1710245  18.0257862  18.0257851
  18.0257882  18.0257862   7.4088598   7.4088598   7.3943295   7.3943295
   7.3943304   7.3943304   7.4088585   7.4088585
 SUMMED SPIN DENSITY           0.00000000
 TOTAL ATOMIC SPINS  :
   0.0000000   0.0000000   0.0000000   0.0000000   0.6308858  -0.6308859
   0.6308851  -0.6308859  -0.1196405  -0.1196405   0.0000001   0.0000001
   0.0000001   0.0000001   0.1196407   0.1196407
 TTTTTTTTTTTTTTTTTTTTTTTTTTTTTT MOQGAD      TELAPSE     2836.36 TCPU     2814.14
 TTTTTTTTTTTTTTTTTTTTTTTTTTTTTT SHELLXN     TELAPSE     2910.82 TCPU     2888.61
 TTTTTTTTTTTTTTTTTTTTTTTTTTTTTT MONMO3      TELAPSE     2915.37 TCPU     2893.16
 NUMERICALLY INTEGRATED DENSITY     66.0004740773     66.0004740842
 TTTTTTTTTTTTTTTTTTTTTTTTTTTTTT NUMDFT      TELAPSE     2916.54 TCPU     2894.34
 CYC  34 ETOT(AU) -9.203632748141E+02 DETOT -2.82E-09 tst  1.83E-11 PX  6.74E-06
 CYCLE 34 WAVE FUNCTION SAVED IN FORTRAN UNIT 79
 MODIFIED BROYDEN: MIX%=  60 W0=  1.000000000000E-02 W=  2.519715019797E+04
 TTTTTTTTTTTTTTTTTTTTTTTTTTTTTT FDIK        TELAPSE     2917.46 TCPU     2894.84
 SPIN LOCKING: NO ENERGY GAP COMPUTED
 TTTTTTTTTTTTTTTTTTTTTTTTTTTTTT PDIG        TELAPSE     2917.63 TCPU     2895.01
 CHARGE NORMALIZATION FACTOR   1.00000000
 TOTAL ATOMIC CHARGES:
   0.1710244   0.1710244   0.1710244   0.1710244  18.0257855  18.0257829
  18.0257847  18.0257853   7.4088595   7.4088595   7.3943316   7.3943316
   7.3943322   7.3943322   7.4088588   7.4088588
 SUMMED SPIN DENSITY           0.00000000
 TOTAL ATOMIC SPINS  :
  -0.0000000  -0.0000000  -0.0000000  -0.0000000   0.6308860  -0.6308867
   0.6308866  -0.6308863  -0.1196404  -0.1196404  -0.0000001  -0.0000001
   0.0000002   0.0000002   0.1196405   0.1196405
 TTTTTTTTTTTTTTTTTTTTTTTTTTTTTT MOQGAD      TELAPSE     2917.66 TCPU     2895.04
 TTTTTTTTTTTTTTTTTTTTTTTTTTTTTT SHELLXN     TELAPSE     2991.92 TCPU     2969.36
 TTTTTTTTTTTTTTTTTTTTTTTTTTTTTT MONMO3      TELAPSE     2996.57 TCPU     2974.01
 NUMERICALLY INTEGRATED DENSITY     66.0004740771     66.0004740840
 TTTTTTTTTTTTTTTTTTTTTTTTTTTTTT NUMDFT      TELAPSE     2997.75 TCPU     2975.19
 CYC  35 ETOT(AU) -9.203632748141E+02 DETOT  2.61E-11 tst  9.00E-12 PX  5.32E-06
 CYCLE 35 WAVE FUNCTION SAVED IN FORTRAN UNIT 79
 MODIFIED BROYDEN: MIX%=  60 W0=  1.000000000000E-02 W=  6.194327291941E+04
 TTTTTTTTTTTTTTTTTTTTTTTTTTTTTT FDIK        TELAPSE     2998.78 TCPU     2976.13
 SPIN LOCKING: NO ENERGY GAP COMPUTED
 TTTTTTTTTTTTTTTTTTTTTTTTTTTTTT PDIG        TELAPSE     2998.97 TCPU     2976.32
 CHARGE NORMALIZATION FACTOR   1.00000000
 TOTAL ATOMIC CHARGES:
   0.1710244   0.1710244   0.1710244   0.1710244  18.0257839  18.0257836
  18.0257858  18.0257844   7.4088591   7.4088591   7.3943319   7.3943319
   7.3943326   7.3943326   7.4088587   7.4088587
 SUMMED SPIN DENSITY           0.00000000
 TOTAL ATOMIC SPINS  :
  -0.0000000  -0.0000000  -0.0000000  -0.0000000   0.6308868  -0.6308865
   0.6308862  -0.6308867  -0.1196403  -0.1196403   0.0000000   0.0000000
   0.0000000   0.0000000   0.1196403   0.1196403
 TTTTTTTTTTTTTTTTTTTTTTTTTTTTTT MOQGAD      TELAPSE     2999.00 TCPU     2976.34
 TTTTTTTTTTTTTTTTTTTTTTTTTTTTTT SHELLXN     TELAPSE     3073.30 TCPU     3050.71
 +++ ENERGIES IN A.U. +++
 ::: EXT EL-POLE                                  -4.6787851115659E+03
 ::: EXT EL-SPHEROPOLE                             2.2832749532626E+01
 ::: BIELET ZONE E-E                               5.0954729154331E+03
 ::: TOTAL E-E                                     4.3952055339983E+02
 ::: TOTAL E-N + N-E                              -1.4611039375687E+03
 ::: TOTAL N-N                                    -4.1431339568884E+02
 ::: KINETIC ENERGY                                5.9606237361874E+02
 ::: PSEUDO TOTAL   ENERGY                        -8.3983440623901E+02
 ::: VIRIAL COEFFICIENT                            8.3023011400275E-01
 TTTTTTTTTTTTTTTTTTTTTTTTTTTTTT MONMO3      TELAPSE     3077.95 TCPU     3055.36
 NUMERICALLY INTEGRATED DENSITY     66.0004740771     66.0004740840
 TTTTTTTTTTTTTTTTTTTTTTTTTTTTTT NUMDFT      TELAPSE     3079.14 TCPU     3056.55
 CYC  36 ETOT(AU) -9.203632748126E+02 DETOT  1.45E-09 tst  2.27E-12 PX  5.32E-06

 == SCF ENDED - CONVERGENCE ON ENERGY      E(AU) -9.2036327481261E+02 CYCLES  36


 ENERGY EXPRESSION=HARTREE+FOCK EXCH*0.25000+(PBESOL     EXCH)*0.75000+PBESOL     CORR

 FINITE TEMPERATURE DFT CALCULATION 
 TEMPERATURE      (T)    1.000000000000E-13 HARTREE 
 ENERGY           (E)   -9.203632748126E+02
 FREE ENERGY      (F)   -9.203632748126E+02
 ELECTRON ENTROPY (S)    0.000000000000E+00
 (E(T)+F(T))/2    (E0)  -9.203632748126E+02


 TOTAL ENERGY(DFT)(AU)( 36) -9.2036327481261E+02 DE 1.4E-09 tester 2.3E-12
 TTTTTTTTTTTTTTTTTTTTTTTTTTTTTT EDFT        TELAPSE     3079.15 TCPU     3056.56
 EIGENVECTORS IN FORTRAN UNIT  8
 TTTTTTTTTTTTTTTTTTTTTTTTTTTTTT END         TELAPSE     3079.65 TCPU     3057.03
 EEEEEEEEEE TERMINATION  DATE 20 11 2017 TIME 01:13:06.7
NODE    0 CPU TIME =      3057.030
NODE    1 CPU TIME =      3043.226
NODE    2 CPU TIME =      3060.564
NODE    3 CPU TIME =      3047.166
NODE    4 CPU TIME =      3049.343
NODE    5 CPU TIME =      3064.817
NODE    6 CPU TIME =      3041.808
NODE    7 CPU TIME =      3047.697
NODE    8 CPU TIME =      3048.589
NODE    9 CPU TIME =      3059.424
NODE   10 CPU TIME =      3063.762
NODE   11 CPU TIME =      3047.679
NODE   12 CPU TIME =      3045.815
NODE   13 CPU TIME =      3026.737
NODE   14 CPU TIME =      3057.679
NODE   15 CPU TIME =      3052.698
NODE   16 CPU TIME =      3039.129
NODE   17 CPU TIME =      3064.995
NODE   18 CPU TIME =      3057.949
NODE   19 CPU TIME =      3048.051
NODE   20 CPU TIME =      3057.668
NODE   21 CPU TIME =      3046.742
NODE   22 CPU TIME =      3055.531
NODE   23 CPU TIME =      3030.765
    TOTAL CPU TIME =     73214.864
